<?xml version="1.0" encoding="ISO-8859-1"?>
<modeling>
 <generator>
  <i name="program" type="string">vasp </i>
  <i name="version" type="string">5.4.4.18Apr17-6-g9f103f2a35  </i>
  <i name="subversion" type="string">(build Jun 07 2020 16:50:00) complex            parallel </i>
  <i name="platform" type="string">LinuxIFC </i>
  <i name="date" type="string">2023 02 28 </i>
  <i name="time" type="string">05:39:26 </i>
 </generator>
 <incar>
  <i type="string" name="SYSTEM">Simulation for cell shape cell volume r</i>
  <i type="int" name="ISTART">     1</i>
  <i type="string" name="PREC">high</i>
  <i type="string" name="ALGO">48</i>
  <i type="int" name="ICHARG">    11</i>
  <i type="int" name="NELM">   200</i>
  <i type="int" name="IBRION">    -1</i>
  <i name="EDIFF">      0.00001000</i>
  <i name="EDIFFG">     -0.01000000</i>
  <i type="int" name="NSW">     0</i>
  <i type="int" name="ISIF">     2</i>
  <i name="ENCUT">    500.00000000</i>
  <i name="POTIM">      0.30000000</i>
  <i type="string" name="LREAL">A</i>
  <i type="int" name="ISMEAR">     0</i>
  <i name="SIGMA">      0.01000000</i>
  <i type="int" name="NWRITE">     0</i>
  <i type="logical" name="LWAVE"> F  </i>
  <i type="logical" name="LCHARG"> F  </i>
  <v type="int" name="KPOINT_BSE">    -1     0     0     0</v>
  <i type="int" name="NELM">   200</i>
  <i type="string" name="GGA">PE</i>
 </incar>
 <structure name="primitive_cell" >
  <crystal>
   <varray name="basis" >
    <v>      28.85378057      -0.02775212       0.00000000 </v>
    <v>     -14.45140141      24.79838860       0.00000000 </v>
    <v>       0.00000000       0.00000000      20.00000000 </v>
   </varray>
   <i name="volume">  14302.52412292 </i>
   <varray name="rec_basis" >
    <v>       0.03467694       0.02020818       0.00000000 </v>
    <v>       0.00003881       0.04034782       0.00000000 </v>
    <v>       0.00000000       0.00000000       0.05000000 </v>
   </varray>
  </crystal>
  <varray name="positions" >
   <v>      -0.32109166       0.38762685       0.44250204 </v>
   <v>      -0.37126894       0.34581560       0.44292354 </v>
   <v>      -0.28233285       0.37456579       0.44100025 </v>
   <v>      -0.35764026       0.43678951       0.43569877 </v>
   <v>      -0.38453618       0.29359306       0.44184764 </v>
   <v>      -0.29109622       0.32421150       0.43980695 </v>
   <v>      -0.22530309       0.42055688       0.44198332 </v>
   <v>      -0.41680697       0.35701638       0.44600579 </v>
   <v>      -0.22199882       0.45132613       0.40600923 </v>
   <v>      -0.39833096       0.41312846       0.43504214 </v>
   <v>      -0.34312052       0.28505050       0.44073669 </v>
   <v>      -0.21858667       0.43975719       0.49203779 </v>
   <v>      -0.43606972       0.34280131       0.49574296 </v>
   <v>      -0.44738872       0.33059484       0.40913827 </v>
   <v>      -0.18824702       0.40226905       0.42799041 </v>
   <v>      -0.20585354       0.36133343       0.42829349 </v>
   <v>      -0.42808546       0.43672884       0.45285023 </v>
   <v>      -0.35463314       0.22780990       0.44189978 </v>
   <v>      -0.36232535      -0.48193897       0.43815624 </v>
   <v>      -0.43370380       0.20772656       0.43202331 </v>
   <v>      -0.34063420       0.22181749       0.49123786 </v>
   <v>      -0.32845093       0.22410796       0.40450983 </v>
   <v>      -0.40444104       0.49294771       0.45264543 </v>
   <v>      -0.13098634      -0.49177261       0.46680260 </v>
   <v>      -0.13480711       0.43146415       0.44636663 </v>
   <v>      -0.41053119       0.19029052       0.43057455 </v>
   <v>      -0.48273861       0.40648766       0.47056040 </v>
   <v>       0.49556300       0.36242741       0.47057315 </v>
   <v>      -0.10944113       0.48601619       0.46590897 </v>
   <v>      -0.10317936       0.40723243       0.44490656 </v>
   <v>      -0.43365909      -0.48194905       0.46989370 </v>
   <v>      -0.12099921       0.36515220       0.42912189 </v>
   <v>      -0.43455042       0.13646633       0.44815335 </v>
   <v>       0.48913343       0.42989191       0.48799142 </v>
   <v>      -0.05791181      -0.48656442       0.48405644 </v>
   <v>      -0.48925652       0.48390802       0.48927676 </v>
   <v>      -0.36118812       0.13357221       0.46551450 </v>
   <v>      -0.37003665      -0.40448935       0.46068841 </v>
   <v>       0.48491652       0.12160233       0.43355680 </v>
   <v>      -0.41023890      -0.42714214       0.46690133 </v>
   <v>      -0.40501746       0.11141310       0.46568821 </v>
   <v>      -0.49052287       0.10409276       0.44792076 </v>
   <v>      -0.04884306       0.43577030       0.46270357 </v>
   <v>      -0.02642677       0.49119765       0.48422164 </v>
   <v>       0.41879161       0.40161043      -0.49082027 </v>
   <v>      -0.01460549      -0.41649758      -0.49215761 </v>
   <v>      -0.43231401      -0.41193868       0.48839468 </v>
   <v>       0.47634134      -0.49456291      -0.48876641 </v>
   <v>      -0.42883329       0.05950498       0.48324157 </v>
   <v>      -0.01830310       0.41191838       0.45834744 </v>
   <v>       0.48394176       0.04937327       0.46513731 </v>
   <v>      -0.03669240       0.37162514       0.45072694 </v>
   <v>       0.39400152       0.41702094      -0.48152200 </v>
   <v>       0.02567459      -0.39221751      -0.48197192 </v>
   <v>       0.49946438      -0.44069404      -0.48155365 </v>
   <v>       0.02951864      -0.47536224      -0.49267215 </v>
   <v>      -0.48265357       0.02733763       0.48476706 </v>
   <v>       0.41975557       0.47169909      -0.47395117 </v>
   <v>       0.40724497       0.03604872       0.45552305 </v>
   <v>       0.01884427       0.43322044       0.48071387 </v>
   <v>       0.42941250       0.01812323       0.46210767 </v>
   <v>       0.04094454      -0.35496691      -0.46193450 </v>
   <v>       0.05346385      -0.41883970      -0.47558187 </v>
   <v>       0.35648586       0.39419354      -0.46302201 </v>
   <v>      -0.40168503       0.01705215      -0.49329105 </v>
   <v>       0.05912602      -0.49941596      -0.48645210 </v>
   <v>       0.47231354      -0.41703700      -0.46120042 </v>
   <v>       0.41388616      -0.01952125       0.48341478 </v>
   <v>       0.49516463      -0.02888309      -0.49253777 </v>
   <v>       0.39158592       0.49712954      -0.45295688 </v>
   <v>       0.49537242      -0.37317882      -0.45642303 </v>
   <v>      -0.41744758      -0.02323787      -0.48234559 </v>
   <v>       0.10688989      -0.39165266      -0.45353878 </v>
   <v>       0.41707159      -0.44672646      -0.44629179 </v>
   <v>       0.10984849      -0.47315669      -0.46523029 </v>
   <v>       0.44146520      -0.05947195      -0.48599790 </v>
   <v>       0.34873235       0.47231849      -0.44191458 </v>
   <v>      -0.47191124      -0.05212411      -0.47599579 </v>
   <v>       0.12571950      -0.34887696      -0.44061021 </v>
   <v>      -0.39509128      -0.03819442      -0.46347268 </v>
   <v>       0.13642398      -0.41801341      -0.44819025 </v>
   <v>       0.12974647      -0.49685297      -0.46152508 </v>
   <v>       0.38896794      -0.42207763      -0.42520108 </v>
   <v>       0.41723085      -0.11051386      -0.46512155 </v>
   <v>      -0.49791184      -0.10594517      -0.45433872 </v>
   <v>       0.43307096      -0.34879550      -0.47918288 </v>
   <v>       0.34821444      -0.44356068      -0.42837980 </v>
   <v>       0.18907178      -0.39072718      -0.42633174 </v>
   <v>       0.37357409      -0.13112551      -0.46109539 </v>
   <v>       0.41119205      -0.36481835      -0.43129331 </v>
   <v>       0.44087807      -0.34201843      -0.39170200 </v>
   <v>       0.44612529      -0.13648178      -0.44869120 </v>
   <v>      -0.47369504      -0.12426175      -0.44194454 </v>
   <v>       0.20910798      -0.34969757      -0.42803885 </v>
   <v>       0.21753106      -0.43449357      -0.48148457 </v>
   <v>       0.22343027      -0.41322461      -0.43306994 </v>
   <v>       0.21590097      -0.44364225      -0.39417601 </v>
   <v>       0.36875671      -0.34922421      -0.42912991 </v>
   <v>       0.42091338      -0.18945027      -0.42708085 </v>
   <v>       0.31723717      -0.38808649      -0.42945629 </v>
   <v>       0.44199690      -0.20910295      -0.42862078 </v>
   <v>       0.34817573      -0.21896383      -0.48138071 </v>
   <v>       0.28174331      -0.37058121      -0.43000010 </v>
   <v>       0.34135681      -0.21696379      -0.39401948 </v>
   <v>       0.36391537      -0.22446868      -0.43314462 </v>
   <v>       0.38639418      -0.29583914      -0.42898448 </v>
   <v>       0.29483287      -0.31885854      -0.42988595 </v>
   <v>       0.34797089      -0.28294837      -0.42983234 </v>
  </varray>
 </structure>
 <varray name="primitive_index" >
  <v type="int" >        1 </v>
  <v type="int" >       68 </v>
  <v type="int" >       67 </v>
  <v type="int" >       56 </v>
  <v type="int" >        2 </v>
  <v type="int" >        3 </v>
  <v type="int" >       71 </v>
  <v type="int" >       92 </v>
  <v type="int" >       48 </v>
  <v type="int" >       18 </v>
  <v type="int" >       69 </v>
  <v type="int" >       27 </v>
  <v type="int" >       25 </v>
  <v type="int" >       46 </v>
  <v type="int" >       21 </v>
  <v type="int" >       61 </v>
  <v type="int" >       98 </v>
  <v type="int" >       70 </v>
  <v type="int" >       52 </v>
  <v type="int" >       66 </v>
  <v type="int" >       26 </v>
  <v type="int" >       47 </v>
  <v type="int" >       97 </v>
  <v type="int" >       37 </v>
  <v type="int" >      103 </v>
  <v type="int" >       24 </v>
  <v type="int" >       81 </v>
  <v type="int" >       32 </v>
  <v type="int" >       86 </v>
  <v type="int" >      102 </v>
  <v type="int" >       96 </v>
  <v type="int" >       57 </v>
  <v type="int" >      108 </v>
  <v type="int" >        7 </v>
  <v type="int" >       10 </v>
  <v type="int" >       95 </v>
  <v type="int" >       42 </v>
  <v type="int" >       55 </v>
  <v type="int" >       62 </v>
  <v type="int" >       17 </v>
  <v type="int" >       91 </v>
  <v type="int" >      107 </v>
  <v type="int" >      101 </v>
  <v type="int" >      100 </v>
  <v type="int" >       34 </v>
  <v type="int" >       39 </v>
  <v type="int" >       54 </v>
  <v type="int" >       78 </v>
  <v type="int" >       13 </v>
  <v type="int" >       20 </v>
  <v type="int" >      106 </v>
  <v type="int" >       60 </v>
  <v type="int" >        8 </v>
  <v type="int" >       11 </v>
  <v type="int" >       16 </v>
  <v type="int" >       83 </v>
  <v type="int" >      105 </v>
  <v type="int" >       79 </v>
  <v type="int" >       65 </v>
  <v type="int" >       59 </v>
  <v type="int" >       23 </v>
  <v type="int" >       38 </v>
  <v type="int" >       84 </v>
  <v type="int" >       33 </v>
  <v type="int" >       44 </v>
  <v type="int" >       19 </v>
  <v type="int" >       94 </v>
  <v type="int" >       64 </v>
  <v type="int" >       88 </v>
  <v type="int" >       80 </v>
  <v type="int" >       53 </v>
  <v type="int" >       14 </v>
  <v type="int" >       85 </v>
  <v type="int" >       77 </v>
  <v type="int" >       99 </v>
  <v type="int" >       22 </v>
  <v type="int" >       31 </v>
  <v type="int" >       89 </v>
  <v type="int" >       36 </v>
  <v type="int" >       43 </v>
  <v type="int" >       82 </v>
  <v type="int" >       58 </v>
  <v type="int" >        9 </v>
  <v type="int" >      104 </v>
  <v type="int" >       90 </v>
  <v type="int" >       49 </v>
  <v type="int" >       35 </v>
  <v type="int" >       12 </v>
  <v type="int" >       63 </v>
  <v type="int" >       93 </v>
  <v type="int" >       28 </v>
  <v type="int" >       87 </v>
  <v type="int" >       41 </v>
  <v type="int" >       40 </v>
  <v type="int" >       51 </v>
  <v type="int" >       76 </v>
  <v type="int" >       30 </v>
  <v type="int" >       73 </v>
  <v type="int" >       15 </v>
  <v type="int" >        4 </v>
  <v type="int" >       45 </v>
  <v type="int" >       50 </v>
  <v type="int" >       72 </v>
  <v type="int" >       29 </v>
  <v type="int" >       75 </v>
  <v type="int" >        5 </v>
  <v type="int" >        6 </v>
  <v type="int" >       74 </v>
 </varray>
 <kpoints>
  <generation param="listgenerated">
   <i name="divisions" type="int">      20 </i>
   <v>       0.00000000       0.00000000       0.00000000 </v>
   <v>       0.50000000      -0.50000000       0.00000000 </v>
   <v>       0.66941484      -0.33415347       0.00000000 </v>
   <v>       0.50000000       0.00000000       0.00000000 </v>
   <v>       0.33058516       0.33415347       0.00000000 </v>
   <v>       0.00000000       0.50000000       0.00000000 </v>
   <v>       0.00000000       0.00000000       0.00000000 </v>
  </generation>
  <varray name="kpointlist" >
   <v>       0.00000000       0.00000000       0.00000000 </v>
   <v>       0.02631579      -0.02631579       0.00000000 </v>
   <v>       0.05263158      -0.05263158       0.00000000 </v>
   <v>       0.07894737      -0.07894737       0.00000000 </v>
   <v>       0.10526316      -0.10526316       0.00000000 </v>
   <v>       0.13157895      -0.13157895       0.00000000 </v>
   <v>       0.15789474      -0.15789474       0.00000000 </v>
   <v>       0.18421053      -0.18421053       0.00000000 </v>
   <v>       0.21052632      -0.21052632       0.00000000 </v>
   <v>       0.23684211      -0.23684211       0.00000000 </v>
   <v>       0.26315789      -0.26315789       0.00000000 </v>
   <v>       0.28947368      -0.28947368       0.00000000 </v>
   <v>       0.31578947      -0.31578947       0.00000000 </v>
   <v>       0.34210526      -0.34210526       0.00000000 </v>
   <v>       0.36842105      -0.36842105       0.00000000 </v>
   <v>       0.39473684      -0.39473684       0.00000000 </v>
   <v>       0.42105263      -0.42105263       0.00000000 </v>
   <v>       0.44736842      -0.44736842       0.00000000 </v>
   <v>       0.47368421      -0.47368421       0.00000000 </v>
   <v>       0.50000000      -0.50000000       0.00000000 </v>
   <v>       0.50000000      -0.50000000       0.00000000 </v>
   <v>       0.50891657      -0.49127124       0.00000000 </v>
   <v>       0.51783314      -0.48254247       0.00000000 </v>
   <v>       0.52674971      -0.47381371       0.00000000 </v>
   <v>       0.53566628      -0.46508494       0.00000000 </v>
   <v>       0.54458285      -0.45635618       0.00000000 </v>
   <v>       0.55349942      -0.44762741       0.00000000 </v>
   <v>       0.56241599      -0.43889865       0.00000000 </v>
   <v>       0.57133256      -0.43016988       0.00000000 </v>
   <v>       0.58024913      -0.42144112       0.00000000 </v>
   <v>       0.58916571      -0.41271235       0.00000000 </v>
   <v>       0.59808228      -0.40398359       0.00000000 </v>
   <v>       0.60699885      -0.39525482       0.00000000 </v>
   <v>       0.61591542      -0.38652606       0.00000000 </v>
   <v>       0.62483199      -0.37779729       0.00000000 </v>
   <v>       0.63374856      -0.36906853       0.00000000 </v>
   <v>       0.64266513      -0.36033976       0.00000000 </v>
   <v>       0.65158170      -0.35161100       0.00000000 </v>
   <v>       0.66049827      -0.34288223       0.00000000 </v>
   <v>       0.66941484      -0.33415347       0.00000000 </v>
   <v>       0.66941484      -0.33415347       0.00000000 </v>
   <v>       0.66049827      -0.31656645       0.00000000 </v>
   <v>       0.65158170      -0.29897942       0.00000000 </v>
   <v>       0.64266513      -0.28139240       0.00000000 </v>
   <v>       0.63374856      -0.26380537       0.00000000 </v>
   <v>       0.62483199      -0.24621835       0.00000000 </v>
   <v>       0.61591542      -0.22863132       0.00000000 </v>
   <v>       0.60699885      -0.21104430       0.00000000 </v>
   <v>       0.59808228      -0.19345727       0.00000000 </v>
   <v>       0.58916571      -0.17587025       0.00000000 </v>
   <v>       0.58024913      -0.15828322       0.00000000 </v>
   <v>       0.57133256      -0.14069620       0.00000000 </v>
   <v>       0.56241599      -0.12310917       0.00000000 </v>
   <v>       0.55349942      -0.10552215       0.00000000 </v>
   <v>       0.54458285      -0.08793512       0.00000000 </v>
   <v>       0.53566628      -0.07034810       0.00000000 </v>
   <v>       0.52674971      -0.05276107       0.00000000 </v>
   <v>       0.51783314      -0.03517405       0.00000000 </v>
   <v>       0.50891657      -0.01758702       0.00000000 </v>
   <v>       0.50000000       0.00000000       0.00000000 </v>
   <v>       0.50000000       0.00000000       0.00000000 </v>
   <v>       0.49108343       0.01758702       0.00000000 </v>
   <v>       0.48216686       0.03517405       0.00000000 </v>
   <v>       0.47325029       0.05276107       0.00000000 </v>
   <v>       0.46433372       0.07034810       0.00000000 </v>
   <v>       0.45541715       0.08793512       0.00000000 </v>
   <v>       0.44650058       0.10552215       0.00000000 </v>
   <v>       0.43758401       0.12310917       0.00000000 </v>
   <v>       0.42866744       0.14069620       0.00000000 </v>
   <v>       0.41975087       0.15828322       0.00000000 </v>
   <v>       0.41083429       0.17587025       0.00000000 </v>
   <v>       0.40191772       0.19345727       0.00000000 </v>
   <v>       0.39300115       0.21104430       0.00000000 </v>
   <v>       0.38408458       0.22863132       0.00000000 </v>
   <v>       0.37516801       0.24621835       0.00000000 </v>
   <v>       0.36625144       0.26380537       0.00000000 </v>
   <v>       0.35733487       0.28139240       0.00000000 </v>
   <v>       0.34841830       0.29897942       0.00000000 </v>
   <v>       0.33950173       0.31656645       0.00000000 </v>
   <v>       0.33058516       0.33415347       0.00000000 </v>
   <v>       0.33058516       0.33415347       0.00000000 </v>
   <v>       0.31318594       0.34288223       0.00000000 </v>
   <v>       0.29578672       0.35161100       0.00000000 </v>
   <v>       0.27838750       0.36033976       0.00000000 </v>
   <v>       0.26098828       0.36906853       0.00000000 </v>
   <v>       0.24358906       0.37779729       0.00000000 </v>
   <v>       0.22618985       0.38652606       0.00000000 </v>
   <v>       0.20879063       0.39525482       0.00000000 </v>
   <v>       0.19139141       0.40398359       0.00000000 </v>
   <v>       0.17399219       0.41271235       0.00000000 </v>
   <v>       0.15659297       0.42144112       0.00000000 </v>
   <v>       0.13919375       0.43016988       0.00000000 </v>
   <v>       0.12179453       0.43889865       0.00000000 </v>
   <v>       0.10439531       0.44762741       0.00000000 </v>
   <v>       0.08699609       0.45635618       0.00000000 </v>
   <v>       0.06959688       0.46508494       0.00000000 </v>
   <v>       0.05219766       0.47381371       0.00000000 </v>
   <v>       0.03479844       0.48254247       0.00000000 </v>
   <v>       0.01739922       0.49127124       0.00000000 </v>
   <v>       0.00000000       0.50000000       0.00000000 </v>
   <v>       0.00000000       0.50000000       0.00000000 </v>
   <v>       0.00000000       0.47368421       0.00000000 </v>
   <v>       0.00000000       0.44736842       0.00000000 </v>
   <v>       0.00000000       0.42105263       0.00000000 </v>
   <v>       0.00000000       0.39473684       0.00000000 </v>
   <v>       0.00000000       0.36842105       0.00000000 </v>
   <v>       0.00000000       0.34210526       0.00000000 </v>
   <v>       0.00000000       0.31578947       0.00000000 </v>
   <v>       0.00000000       0.28947368       0.00000000 </v>
   <v>       0.00000000       0.26315789       0.00000000 </v>
   <v>       0.00000000       0.23684211       0.00000000 </v>
   <v>       0.00000000       0.21052632       0.00000000 </v>
   <v>       0.00000000       0.18421053       0.00000000 </v>
   <v>       0.00000000       0.15789474       0.00000000 </v>
   <v>       0.00000000       0.13157895       0.00000000 </v>
   <v>       0.00000000       0.10526316       0.00000000 </v>
   <v>       0.00000000       0.07894737       0.00000000 </v>
   <v>       0.00000000       0.05263158       0.00000000 </v>
   <v>       0.00000000       0.02631579       0.00000000 </v>
   <v>       0.00000000       0.00000000       0.00000000 </v>
  </varray>
  <varray name="weights" >
   <v>       0.00833333 </v>
   <v>       0.00833333 </v>
   <v>       0.00833333 </v>
   <v>       0.00833333 </v>
   <v>       0.00833333 </v>
   <v>       0.00833333 </v>
   <v>       0.00833333 </v>
   <v>       0.00833333 </v>
   <v>       0.00833333 </v>
   <v>       0.00833333 </v>
   <v>       0.00833333 </v>
   <v>       0.00833333 </v>
   <v>       0.00833333 </v>
   <v>       0.00833333 </v>
   <v>       0.00833333 </v>
   <v>       0.00833333 </v>
   <v>       0.00833333 </v>
   <v>       0.00833333 </v>
   <v>       0.00833333 </v>
   <v>       0.00833333 </v>
   <v>       0.00833333 </v>
   <v>       0.00833333 </v>
   <v>       0.00833333 </v>
   <v>       0.00833333 </v>
   <v>       0.00833333 </v>
   <v>       0.00833333 </v>
   <v>       0.00833333 </v>
   <v>       0.00833333 </v>
   <v>       0.00833333 </v>
   <v>       0.00833333 </v>
   <v>       0.00833333 </v>
   <v>       0.00833333 </v>
   <v>       0.00833333 </v>
   <v>       0.00833333 </v>
   <v>       0.00833333 </v>
   <v>       0.00833333 </v>
   <v>       0.00833333 </v>
   <v>       0.00833333 </v>
   <v>       0.00833333 </v>
   <v>       0.00833333 </v>
   <v>       0.00833333 </v>
   <v>       0.00833333 </v>
   <v>       0.00833333 </v>
   <v>       0.00833333 </v>
   <v>       0.00833333 </v>
   <v>       0.00833333 </v>
   <v>       0.00833333 </v>
   <v>       0.00833333 </v>
   <v>       0.00833333 </v>
   <v>       0.00833333 </v>
   <v>       0.00833333 </v>
   <v>       0.00833333 </v>
   <v>       0.00833333 </v>
   <v>       0.00833333 </v>
   <v>       0.00833333 </v>
   <v>       0.00833333 </v>
   <v>       0.00833333 </v>
   <v>       0.00833333 </v>
   <v>       0.00833333 </v>
   <v>       0.00833333 </v>
   <v>       0.00833333 </v>
   <v>       0.00833333 </v>
   <v>       0.00833333 </v>
   <v>       0.00833333 </v>
   <v>       0.00833333 </v>
   <v>       0.00833333 </v>
   <v>       0.00833333 </v>
   <v>       0.00833333 </v>
   <v>       0.00833333 </v>
   <v>       0.00833333 </v>
   <v>       0.00833333 </v>
   <v>       0.00833333 </v>
   <v>       0.00833333 </v>
   <v>       0.00833333 </v>
   <v>       0.00833333 </v>
   <v>       0.00833333 </v>
   <v>       0.00833333 </v>
   <v>       0.00833333 </v>
   <v>       0.00833333 </v>
   <v>       0.00833333 </v>
   <v>       0.00833333 </v>
   <v>       0.00833333 </v>
   <v>       0.00833333 </v>
   <v>       0.00833333 </v>
   <v>       0.00833333 </v>
   <v>       0.00833333 </v>
   <v>       0.00833333 </v>
   <v>       0.00833333 </v>
   <v>       0.00833333 </v>
   <v>       0.00833333 </v>
   <v>       0.00833333 </v>
   <v>       0.00833333 </v>
   <v>       0.00833333 </v>
   <v>       0.00833333 </v>
   <v>       0.00833333 </v>
   <v>       0.00833333 </v>
   <v>       0.00833333 </v>
   <v>       0.00833333 </v>
   <v>       0.00833333 </v>
   <v>       0.00833333 </v>
   <v>       0.00833333 </v>
   <v>       0.00833333 </v>
   <v>       0.00833333 </v>
   <v>       0.00833333 </v>
   <v>       0.00833333 </v>
   <v>       0.00833333 </v>
   <v>       0.00833333 </v>
   <v>       0.00833333 </v>
   <v>       0.00833333 </v>
   <v>       0.00833333 </v>
   <v>       0.00833333 </v>
   <v>       0.00833333 </v>
   <v>       0.00833333 </v>
   <v>       0.00833333 </v>
   <v>       0.00833333 </v>
   <v>       0.00833333 </v>
   <v>       0.00833333 </v>
   <v>       0.00833333 </v>
   <v>       0.00833333 </v>
   <v>       0.00833333 </v>
  </varray>
 </kpoints>
 <parameters>
  <separator name="general" >
   <i type="string" name="SYSTEM">Simulation for cell shape cell volume r</i>
   <i type="logical" name="LCOMPAT"> F  </i>
  </separator>
  <separator name="electronic" >
   <i type="string" name="PREC">high</i>
   <i name="ENMAX">    500.00000000</i>
   <i name="ENAUG">    644.87300000</i>
   <i name="EDIFF">      0.00001000</i>
   <i type="int" name="IALGO">    38</i>
   <i type="int" name="IWAVPR">    10</i>
   <i type="int" name="NBANDS">   224</i>
   <i name="NELECT">    330.00000000</i>
   <i type="int" name="TURBO">     0</i>
   <i type="int" name="IRESTART">     0</i>
   <i type="int" name="NREBOOT">     0</i>
   <i type="int" name="NMIN">     0</i>
   <i name="EREF">      0.00000000</i>
   <separator name="electronic smearing" >
    <i type="int" name="ISMEAR">     0</i>
    <i name="SIGMA">      0.01000000</i>
    <i name="KSPACING">      0.50000000</i>
    <i type="logical" name="KGAMMA"> T  </i>
   </separator>
   <separator name="electronic projectors" >
    <i type="logical" name="LREAL"> T  </i>
    <v name="ROPT">     -0.00040000     -0.00040000     -0.00040000</v>
    <i type="int" name="LMAXPAW">  -100</i>
    <i type="int" name="LMAXMIX">     2</i>
    <i type="logical" name="NLSPLINE"> F  </i>
   </separator>
   <separator name="electronic startup" >
    <i type="int" name="ISTART">     1</i>
    <i type="int" name="ICHARG">    11</i>
    <i type="int" name="INIWAV">     1</i>
   </separator>
   <separator name="electronic spin" >
    <i type="int" name="ISPIN">     1</i>
    <i type="logical" name="LNONCOLLINEAR"> F  </i>
    <v name="MAGMOM">      1.00000000      1.00000000      1.00000000      1.00000000      1.00000000      1.00000000      1.00000000      1.00000000      1.00000000      1.00000000      1.00000000      1.00000000      1.00000000      1.00000000      1.00000000      1.00000000      1.00000000      1.00000000      1.00000000      1.00000000
      1.00000000      1.00000000      1.00000000      1.00000000      1.00000000      1.00000000      1.00000000      1.00000000      1.00000000      1.00000000      1.00000000      1.00000000      1.00000000      1.00000000      1.00000000      1.00000000      1.00000000      1.00000000      1.00000000      1.00000000
      1.00000000      1.00000000      1.00000000      1.00000000      1.00000000      1.00000000      1.00000000      1.00000000      1.00000000      1.00000000      1.00000000      1.00000000      1.00000000      1.00000000      1.00000000      1.00000000      1.00000000      1.00000000      1.00000000      1.00000000
      1.00000000      1.00000000      1.00000000      1.00000000      1.00000000      1.00000000      1.00000000      1.00000000      1.00000000      1.00000000      1.00000000      1.00000000      1.00000000      1.00000000      1.00000000      1.00000000      1.00000000      1.00000000      1.00000000      1.00000000
      1.00000000      1.00000000      1.00000000      1.00000000      1.00000000      1.00000000      1.00000000      1.00000000      1.00000000      1.00000000      1.00000000      1.00000000      1.00000000      1.00000000      1.00000000      1.00000000      1.00000000      1.00000000      1.00000000      1.00000000
      1.00000000      1.00000000      1.00000000      1.00000000      1.00000000      1.00000000      1.00000000      1.00000000</v>
    <i name="NUPDOWN">     -1.00000000</i>
    <i type="logical" name="LSORBIT"> F  </i>
    <v name="SAXIS">      0.00000000      0.00000000      1.00000000</v>
    <i type="logical" name="LSPIRAL"> F  </i>
    <v name="QSPIRAL">      0.00000000      0.00000000      0.00000000</v>
    <i type="logical" name="LZEROZ"> F  </i>
   </separator>
   <separator name="electronic exchange-correlation" >
    <i type="logical" name="LASPH"> F  </i>
    <i type="logical" name="LMETAGGA"> F  </i>
   </separator>
   <separator name="electronic convergence" >
    <i type="int" name="NELM">   200</i>
    <i type="int" name="NELMDL">     0</i>
    <i type="int" name="NELMIN">     2</i>
    <i name="ENINI">    500.00000000</i>
    <separator name="electronic convergence detail" >
     <i type="logical" name="LDIAG"> T  </i>
     <i type="logical" name="LSUBROT"> F  </i>
     <i name="WEIMIN">      0.00000000</i>
     <i name="EBREAK">      0.00000001</i>
     <i name="DEPER">      0.30000000</i>
     <i type="int" name="NRMM">     4</i>
     <i name="TIME">      0.40000000</i>
    </separator>
   </separator>
   <separator name="electronic mixer" >
    <i name="AMIX">      0.40000000</i>
    <i name="BMIX">      1.00000000</i>
    <i name="AMIN">      0.10000000</i>
    <i name="AMIX_MAG">      1.60000000</i>
    <i name="BMIX_MAG">      1.00000000</i>
    <separator name="electronic mixer details" >
     <i type="int" name="IMIX">     4</i>
     <i type="logical" name="MIXFIRST"> F  </i>
     <i type="int" name="MAXMIX">   -45</i>
     <i name="WC">    100.00000000</i>
     <i type="int" name="INIMIX">     1</i>
     <i type="int" name="MIXPRE">     1</i>
     <i type="int" name="MREMOVE">     5</i>
    </separator>
   </separator>
   <separator name="electronic dipolcorrection" >
    <i type="logical" name="LDIPOL"> F  </i>
    <i type="logical" name="LMONO"> F  </i>
    <i type="int" name="IDIPOL">     0</i>
    <i name="EPSILON">      1.00000000</i>
    <v name="DIPOL">   -100.00000000   -100.00000000   -100.00000000</v>
    <i name="EFIELD">      0.00000000</i>
   </separator>
  </separator>
  <separator name="grids" >
   <i type="int" name="NGX">   210</i>
   <i type="int" name="NGY">   210</i>
   <i type="int" name="NGZ">   150</i>
   <i type="int" name="NGXF">   320</i>
   <i type="int" name="NGYF">   320</i>
   <i type="int" name="NGZF">   224</i>
   <i type="logical" name="ADDGRID"> F  </i>
  </separator>
  <separator name="ionic" >
   <i type="int" name="NSW">     0</i>
   <i type="int" name="IBRION">    -1</i>
   <i type="int" name="MDALGO">     0</i>
   <i type="int" name="ISIF">     2</i>
   <i name="PSTRESS">      0.00000000</i>
   <i name="EDIFFG">     -0.01000000</i>
   <i type="int" name="NFREE">     0</i>
   <i name="POTIM">      0.30000000</i>
   <i name="SMASS">     -3.00000000</i>
   <i name="SCALEE">      1.00000000</i>
  </separator>
  <separator name="ionic md" >
   <i name="TEBEG">      0.00010000</i>
   <i name="TEEND">      0.00010000</i>
   <i type="int" name="NBLOCK">     1</i>
   <i type="int" name="KBLOCK">     1</i>
   <i type="int" name="NPACO">   256</i>
   <i name="APACO">     16.00000000</i>
  </separator>
  <separator name="symmetry" >
   <i type="int" name="ISYM">     2</i>
   <i name="SYMPREC">      0.00001000</i>
  </separator>
  <separator name="dos" >
   <i type="int" name="LORBIT">     0</i>
   <v name="RWIGS">     -1.00000000     -1.00000000     -1.00000000</v>
   <i type="int" name="NEDOS">   301</i>
   <i name="EMIN">     10.00000000</i>
   <i name="EMAX">    -10.00000000</i>
   <i name="EFERMI">      0.00000000</i>
  </separator>
  <separator name="writing" >
   <i type="int" name="NWRITE">     0</i>
   <i type="logical" name="LWAVE"> F  </i>
   <i type="logical" name="LDOWNSAMPLE"> F  </i>
   <i type="logical" name="LCHARG"> F  </i>
   <i type="logical" name="LPARD"> F  </i>
   <i type="logical" name="LVTOT"> F  </i>
   <i type="logical" name="LVHAR"> F  </i>
   <i type="logical" name="LELF"> F  </i>
   <i type="logical" name="LOPTICS"> F  </i>
   <v name="STM">      0.00000000      0.00000000      0.00000000      0.00000000      0.00000000      0.00000000      0.00000000</v>
  </separator>
  <separator name="performance" >
   <i type="int" name="NPAR">    16</i>
   <i type="int" name="NSIM">     4</i>
   <i type="int" name="NBLK">    -1</i>
   <i type="logical" name="LPLANE"> T  </i>
   <i type="logical" name="LSCALAPACK"> T  </i>
   <i type="logical" name="LSCAAWARE"> F  </i>
   <i type="logical" name="LSCALU"> F  </i>
   <i type="logical" name="LASYNC"> F  </i>
   <i type="logical" name="LORBITALREAL"> F  </i>
  </separator>
  <separator name="miscellaneous" >
   <i type="int" name="IDIOT">     3</i>
   <i type="int" name="ISPECIAL">     0</i>
   <i type="logical" name="LMUSIC"> F  </i>
   <v name="POMASS">     14.00100000      1.00000000     12.01100000</v>
   <v name="DARWINR">      0.00000000      0.00000000      0.00000000</v>
   <v name="DARWINV">      1.00000000      1.00000000      1.00000000</v>
   <i type="logical" name="LCORR"> T  </i>
  </separator>
  <i type="logical" name="GGA_COMPAT"> T  </i>
  <i type="logical" name="LBERRY"> F  </i>
  <i type="int" name="ICORELEVEL">     0</i>
  <i type="logical" name="LDAU"> F  </i>
  <i type="int" name="I_CONSTRAINED_M">     0</i>
  <separator name="electronic exchange-correlation" >
   <i type="string" name="GGA">PE</i>
   <i type="int" name="VOSKOWN">     0</i>
   <i type="logical" name="LHFCALC"> F  </i>
   <i type="string" name="PRECFOCK"></i>
   <i type="logical" name="LSYMGRAD"> F  </i>
   <i type="logical" name="LHFONE"> F  </i>
   <i type="logical" name="LRHFCALC"> F  </i>
   <i type="logical" name="LTHOMAS"> F  </i>
   <i type="logical" name="LMODELHF"> F  </i>
   <i name="ENCUT4O">     -1.00000000</i>
   <i type="int" name="EXXOEP">     0</i>
   <i type="int" name="FOURORBIT">     0</i>
   <i name="AEXX">      0.00000000</i>
   <i name="HFALPHA">      0.00000000</i>
   <i name="MCALPHA">      0.00000000</i>
   <i name="ALDAX">      1.00000000</i>
   <i name="AGGAX">      1.00000000</i>
   <i name="ALDAC">      1.00000000</i>
   <i name="AGGAC">      1.00000000</i>
   <i type="int" name="NKREDX">     1</i>
   <i type="int" name="NKREDY">     1</i>
   <i type="int" name="NKREDZ">     1</i>
   <i type="logical" name="SHIFTRED"> F  </i>
   <i type="logical" name="ODDONLY"> F  </i>
   <i type="logical" name="EVENONLY"> F  </i>
   <i type="int" name="LMAXFOCK">     0</i>
   <i type="int" name="NMAXFOCKAE">     0</i>
   <i type="logical" name="LFOCKAEDFT"> F  </i>
   <i name="HFSCREEN">      0.00000000</i>
   <i name="HFSCREENC">      0.00000000</i>
   <i type="int" name="NBANDSGWLOW">     0</i>
  </separator>
  <separator name="vdW DFT" >
   <i type="logical" name="LUSE_VDW"> F  </i>
   <i name="Zab_VDW">     -0.84910000</i>
   <i name="PARAM1">      0.12340000</i>
   <i name="PARAM2">      1.00000000</i>
   <i name="PARAM3">      0.00000000</i>
  </separator>
  <separator name="model GW" >
   <i type="int" name="MODEL_GW">     0</i>
   <i name="MODEL_EPS0">     79.45846735</i>
   <i name="MODEL_ALPHA">      1.00000000</i>
  </separator>
  <separator name="linear response parameters" >
   <i type="logical" name="LEPSILON"> F  </i>
   <i type="logical" name="LRPA"> F  </i>
   <i type="logical" name="LNABLA"> F  </i>
   <i type="logical" name="LVEL"> F  </i>
   <i type="int" name="KINTER">     0</i>
   <i name="CSHIFT">      0.10000000</i>
   <i name="OMEGAMAX">     -1.00000000</i>
   <i name="DEG_THRESHOLD">      0.00200000</i>
   <i name="RTIME">     -0.10000000</i>
   <i name="WPLASMAI">      0.00000000</i>
   <v name="DFIELD">      0.00000000      0.00000000      0.00000000</v>
   <v name="WPLASMA">      0.00000000      0.00000000      0.00000000      0.00000000      0.00000000      0.00000000      0.00000000      0.00000000      0.00000000</v>
  </separator>
  <separator name="orbital magnetization" >
   <i type="logical" name="NUCIND"> F  </i>
   <v name="MAGPOS">      0.00000000      0.00000000      0.00000000</v>
   <i type="logical" name="LNICSALL"> T  </i>
   <i type="logical" name="ORBITALMAG"> F  </i>
   <i type="logical" name="LMAGBLOCH"> F  </i>
   <i type="logical" name="LCHIMAG"> F  </i>
   <i type="logical" name="LGAUGE"> T  </i>
   <i type="int" name="MAGATOM">     0</i>
   <v name="MAGDIPOL">      0.00000000      0.00000000      0.00000000</v>
   <v name="AVECCONST">      0.00000000      0.00000000      0.00000000</v>
  </separator>
  <separator name="response functions" >
   <i type="logical" name="LADDER"> F  </i>
   <i type="logical" name="LRPAFORCE"> F  </i>
   <i type="logical" name="LFXC"> F  </i>
   <i type="logical" name="LHARTREE"> T  </i>
   <i type="int" name="IBSE">     0</i>
   <v type="int" name="KPOINT">    -1     0     0     0</v>
   <i type="logical" name="LTCTE"> F  </i>
   <i type="logical" name="LTETE"> F  </i>
   <i type="logical" name="LTRIPLET"> F  </i>
   <i type="logical" name="LFXCEPS"> F  </i>
   <i type="logical" name="LFXHEG"> F  </i>
   <i type="int" name="NATURALO">     2</i>
   <i type="logical" name="L2ORDER"> F  </i>
   <i type="logical" name="LMP2LT"> F  </i>
   <i type="logical" name="LUSEW"> F  </i>
   <i name="ENCUTGW">     -2.00000000</i>
   <i name="ENCUTGWSOFT">     -2.00000000</i>
   <i name="ENCUTLF">     -1.00000000</i>
   <i type="int" name="LMAXMP2">    -1</i>
   <i name="SCISSOR">      0.00000000</i>
   <i type="int" name="NOMEGA">     0</i>
   <i type="int" name="NOMEGAR">     0</i>
   <i type="int" name="NBANDSGW">    -1</i>
   <i type="int" name="NBANDSO">    -1</i>
   <i type="int" name="NBANDSV">    -1</i>
   <i type="int" name="NELM">   200</i>
   <i type="int" name="NELMHF">     1</i>
   <i type="int" name="DIM">     3</i>
   <i type="int" name="ANTIRES">     0</i>
   <i name="OMEGAMAX">    -30.00000000</i>
   <i name="OMEGAMIN">    -30.00000000</i>
   <i name="OMEGATL">   -200.00000000</i>
   <i type="int" name="OMEGAGRID">   140</i>
   <i name="CSHIFT">     -0.10000000</i>
   <i type="logical" name="SELFENERGY"> F  </i>
   <i type="logical" name="LSPECTRAL"> F  </i>
   <i type="logical" name="LSPECTRALGW"> F  </i>
   <i type="logical" name="LSINGLES"> F  </i>
   <i type="logical" name="LFERMIGW"> F  </i>
   <i type="logical" name="ODDONLYGW"> F  </i>
   <i type="logical" name="EVENONLYGW"> F  </i>
   <i type="int" name="NKREDLFX">     1</i>
   <i type="int" name="NKREDLFY">     1</i>
   <i type="int" name="NKREDLFZ">     1</i>
   <i type="int" name="MAXMEM">  2800</i>
   <i type="int" name="TELESCOPE">     0</i>
   <i type="int" name="TAUPAR">     1</i>
   <i type="int" name="OMEGAPAR">    -1</i>
   <i name="LAMBDA">      1.00000000</i>
  </separator>
  <separator name="External order field" >
   <i name="OFIELD_KAPPA">      0.00000000</i>
   <v name="OFIELD_K">      0.00000000      0.00000000      0.00000000</v>
   <i name="OFIELD_Q6_NEAR">      0.00000000</i>
   <i name="OFIELD_Q6_FAR">      0.00000000</i>
   <i name="OFIELD_A">      0.00000000</i>
  </separator>
  <separator name="solvation model" >
   <i type="logical" name="LSOL"> F  </i>
  </separator>
 </parameters>
 <atominfo>
  <atoms>     108 </atoms>
  <types>       3 </types>
  <array name="atoms" >
   <dimension dim="1">ion</dimension>
   <field type="string">element</field>
   <field type="int">atomtype</field>
   <set>
    <rc><c>N </c><c>   1</c></rc>
    <rc><c>N </c><c>   1</c></rc>
    <rc><c>N </c><c>   1</c></rc>
    <rc><c>N </c><c>   1</c></rc>
    <rc><c>N </c><c>   1</c></rc>
    <rc><c>N </c><c>   1</c></rc>
    <rc><c>N </c><c>   1</c></rc>
    <rc><c>N </c><c>   1</c></rc>
    <rc><c>N </c><c>   1</c></rc>
    <rc><c>N </c><c>   1</c></rc>
    <rc><c>N </c><c>   1</c></rc>
    <rc><c>N </c><c>   1</c></rc>
    <rc><c>N </c><c>   1</c></rc>
    <rc><c>N </c><c>   1</c></rc>
    <rc><c>N </c><c>   1</c></rc>
    <rc><c>N </c><c>   1</c></rc>
    <rc><c>N </c><c>   1</c></rc>
    <rc><c>N </c><c>   1</c></rc>
    <rc><c>N </c><c>   1</c></rc>
    <rc><c>N </c><c>   1</c></rc>
    <rc><c>N </c><c>   1</c></rc>
    <rc><c>N </c><c>   1</c></rc>
    <rc><c>N </c><c>   1</c></rc>
    <rc><c>N </c><c>   1</c></rc>
    <rc><c>H </c><c>   2</c></rc>
    <rc><c>H </c><c>   2</c></rc>
    <rc><c>H </c><c>   2</c></rc>
    <rc><c>H </c><c>   2</c></rc>
    <rc><c>H </c><c>   2</c></rc>
    <rc><c>H </c><c>   2</c></rc>
    <rc><c>H </c><c>   2</c></rc>
    <rc><c>H </c><c>   2</c></rc>
    <rc><c>H </c><c>   2</c></rc>
    <rc><c>H </c><c>   2</c></rc>
    <rc><c>H </c><c>   2</c></rc>
    <rc><c>H </c><c>   2</c></rc>
    <rc><c>H </c><c>   2</c></rc>
    <rc><c>H </c><c>   2</c></rc>
    <rc><c>H </c><c>   2</c></rc>
    <rc><c>H </c><c>   2</c></rc>
    <rc><c>H </c><c>   2</c></rc>
    <rc><c>H </c><c>   2</c></rc>
    <rc><c>H </c><c>   2</c></rc>
    <rc><c>H </c><c>   2</c></rc>
    <rc><c>H </c><c>   2</c></rc>
    <rc><c>H </c><c>   2</c></rc>
    <rc><c>H </c><c>   2</c></rc>
    <rc><c>H </c><c>   2</c></rc>
    <rc><c>H </c><c>   2</c></rc>
    <rc><c>H </c><c>   2</c></rc>
    <rc><c>H </c><c>   2</c></rc>
    <rc><c>H </c><c>   2</c></rc>
    <rc><c>H </c><c>   2</c></rc>
    <rc><c>H </c><c>   2</c></rc>
    <rc><c>H </c><c>   2</c></rc>
    <rc><c>H </c><c>   2</c></rc>
    <rc><c>H </c><c>   2</c></rc>
    <rc><c>H </c><c>   2</c></rc>
    <rc><c>H </c><c>   2</c></rc>
    <rc><c>H </c><c>   2</c></rc>
    <rc><c>H </c><c>   2</c></rc>
    <rc><c>H </c><c>   2</c></rc>
    <rc><c>H </c><c>   2</c></rc>
    <rc><c>H </c><c>   2</c></rc>
    <rc><c>H </c><c>   2</c></rc>
    <rc><c>H </c><c>   2</c></rc>
    <rc><c>C </c><c>   3</c></rc>
    <rc><c>C </c><c>   3</c></rc>
    <rc><c>C </c><c>   3</c></rc>
    <rc><c>C </c><c>   3</c></rc>
    <rc><c>C </c><c>   3</c></rc>
    <rc><c>C </c><c>   3</c></rc>
    <rc><c>C </c><c>   3</c></rc>
    <rc><c>C </c><c>   3</c></rc>
    <rc><c>C </c><c>   3</c></rc>
    <rc><c>C </c><c>   3</c></rc>
    <rc><c>C </c><c>   3</c></rc>
    <rc><c>C </c><c>   3</c></rc>
    <rc><c>C </c><c>   3</c></rc>
    <rc><c>C </c><c>   3</c></rc>
    <rc><c>C </c><c>   3</c></rc>
    <rc><c>C </c><c>   3</c></rc>
    <rc><c>C </c><c>   3</c></rc>
    <rc><c>C </c><c>   3</c></rc>
    <rc><c>C </c><c>   3</c></rc>
    <rc><c>C </c><c>   3</c></rc>
    <rc><c>C </c><c>   3</c></rc>
    <rc><c>C </c><c>   3</c></rc>
    <rc><c>C </c><c>   3</c></rc>
    <rc><c>C </c><c>   3</c></rc>
    <rc><c>C </c><c>   3</c></rc>
    <rc><c>C </c><c>   3</c></rc>
    <rc><c>C </c><c>   3</c></rc>
    <rc><c>C </c><c>   3</c></rc>
    <rc><c>C </c><c>   3</c></rc>
    <rc><c>C </c><c>   3</c></rc>
    <rc><c>C </c><c>   3</c></rc>
    <rc><c>C </c><c>   3</c></rc>
    <rc><c>C </c><c>   3</c></rc>
    <rc><c>C </c><c>   3</c></rc>
    <rc><c>C </c><c>   3</c></rc>
    <rc><c>C </c><c>   3</c></rc>
    <rc><c>C </c><c>   3</c></rc>
    <rc><c>C </c><c>   3</c></rc>
    <rc><c>C </c><c>   3</c></rc>
    <rc><c>C </c><c>   3</c></rc>
    <rc><c>C </c><c>   3</c></rc>
    <rc><c>C </c><c>   3</c></rc>
   </set>
  </array>
  <array name="atomtypes" >
   <dimension dim="1">type</dimension>
   <field type="int">atomspertype</field>
   <field type="string">element</field>
   <field>mass</field>
   <field>valence</field>
   <field type="string">pseudopotential</field>
   <set>
    <rc><c>  24</c><c>N </c><c>     14.00100000</c><c>      5.00000000</c><c>  PAW_PBE N 08Apr2002                   </c></rc>
    <rc><c>  42</c><c>H </c><c>      1.00000000</c><c>      1.00000000</c><c>  PAW_PBE H 15Jun2001                   </c></rc>
    <rc><c>  42</c><c>C </c><c>     12.01100000</c><c>      4.00000000</c><c>  PAW_PBE C 08Apr2002                   </c></rc>
   </set>
  </array>
 </atominfo>
 <structure name="initialpos" >
  <crystal>
   <varray name="basis" >
    <v>      28.85378057      -0.02775212       0.00000000 </v>
    <v>     -14.45140141      24.79838860       0.00000000 </v>
    <v>       0.00000000       0.00000000      20.00000000 </v>
   </varray>
   <i name="volume">  14302.52412292 </i>
   <varray name="rec_basis" >
    <v>       0.03467694       0.02020818       0.00000000 </v>
    <v>       0.00003881       0.04034782       0.00000000 </v>
    <v>       0.00000000       0.00000000       0.05000000 </v>
   </varray>
  </crystal>
  <varray name="positions" >
   <v>       0.67890834       0.38762685       0.44250204 </v>
   <v>       0.61546382       0.29359306       0.44184764 </v>
   <v>       0.70890378       0.32421150       0.43980695 </v>
   <v>       0.31723717       0.61191351       0.57054371 </v>
   <v>       0.38639418       0.70416086       0.57101552 </v>
   <v>       0.29483287       0.68114146       0.57011405 </v>
   <v>       0.48913343       0.42989191       0.48799142 </v>
   <v>       0.39400152       0.41702094       0.51847800 </v>
   <v>       0.38896794       0.57792237       0.57479892 </v>
   <v>       0.94208819       0.51343558       0.48405644 </v>
   <v>       0.02567459       0.60778249       0.51802808 </v>
   <v>       0.18907178       0.60927282       0.57366826 </v>
   <v>       0.57116671       0.05950498       0.48324157 </v>
   <v>       0.58255242       0.97676213       0.51765441 </v>
   <v>       0.42091338       0.81054973       0.57291915 </v>
   <v>       0.49946438       0.55930596       0.51844635 </v>
   <v>       0.58976110       0.57285786       0.46690133 </v>
   <v>       0.60166904       0.41312846       0.43504214 </v>
   <v>       0.05912602       0.50058404       0.51354790 </v>
   <v>       0.98169690       0.41191838       0.45834744 </v>
   <v>       0.81175298       0.40226905       0.42799041 </v>
   <v>       0.44146520       0.94052805       0.51400210 </v>
   <v>       0.42941250       0.01812323       0.46210767 </v>
   <v>       0.58946881       0.19029052       0.43057455 </v>
   <v>       0.56393028       0.34280131       0.49574296 </v>
   <v>       0.65936580       0.22181749       0.49123786 </v>
   <v>       0.78141333       0.43975719       0.49203779 </v>
   <v>       0.44087807       0.65798157       0.60829800 </v>
   <v>       0.34135681       0.78303621       0.60598052 </v>
   <v>       0.21590097       0.55635775       0.60582399 </v>
   <v>       0.34873235       0.47231849       0.55808542 </v>
   <v>       0.49556300       0.36242741       0.47057315 </v>
   <v>       0.35648586       0.39419354       0.53697799 </v>
   <v>       0.41879161       0.40161043       0.50917973 </v>
   <v>       0.34821444       0.55643932       0.57162020 </v>
   <v>       0.12571950       0.65112304       0.55938979 </v>
   <v>       0.86901366       0.50822739       0.46680260 </v>
   <v>       0.04094454       0.64503309       0.53806550 </v>
   <v>       0.98539451       0.58350242       0.50784239 </v>
   <v>       0.20910798       0.65030243       0.57196115 </v>
   <v>       0.52630496       0.87573825       0.55805546 </v>
   <v>       0.63881188       0.13357221       0.46551450 </v>
   <v>       0.60490872       0.96180558       0.53652732 </v>
   <v>       0.59831497       0.01705215       0.50670895 </v>
   <v>       0.44199690       0.79089705       0.57137922 </v>
   <v>       0.55261128       0.33059484       0.40913827 </v>
   <v>       0.67154907       0.22410796       0.40450983 </v>
   <v>       0.77800118       0.45132613       0.40600923 </v>
   <v>       0.43307096       0.65120450       0.52081712 </v>
   <v>       0.34817573       0.78103617       0.51861929 </v>
   <v>       0.21753106       0.56550643       0.51851543 </v>
   <v>       0.63767465       0.51806103       0.43815624 </v>
   <v>       0.49537242       0.62682118       0.54357697 </v>
   <v>       0.56768599       0.58806132       0.48839468 </v>
   <v>       0.62996335       0.59551065       0.46068841 </v>
   <v>       0.64235974       0.43678951       0.43569877 </v>
   <v>       0.87900079       0.36515220       0.42912189 </v>
   <v>       0.12974647       0.50314703       0.53847492 </v>
   <v>       0.01884427       0.43322044       0.48071387 </v>
   <v>       0.96330760       0.37162514       0.45072694 </v>
   <v>       0.79414646       0.36133343       0.42829349 </v>
   <v>       0.48491652       0.12160233       0.43355680 </v>
   <v>       0.37357409       0.86887449       0.53890461 </v>
   <v>       0.41388616       0.98047875       0.48341478 </v>
   <v>       0.40724497       0.03604872       0.45552305 </v>
   <v>       0.56629620       0.20772656       0.43202331 </v>
   <v>       0.71766715       0.37456579       0.44100025 </v>
   <v>       0.62873106       0.34581560       0.44292354 </v>
   <v>       0.65687948       0.28505050       0.44073669 </v>
   <v>       0.64536686       0.22780990       0.44189978 </v>
   <v>       0.77469691       0.42055688       0.44198332 </v>
   <v>       0.28174331       0.62941879       0.56999990 </v>
   <v>       0.36875671       0.65077579       0.57087009 </v>
   <v>       0.34797089       0.71705163       0.57016766 </v>
   <v>       0.36391537       0.77553132       0.56685538 </v>
   <v>       0.22343027       0.58677539       0.56693006 </v>
   <v>       0.41707159       0.55327354       0.55370821 </v>
   <v>       0.47634134       0.50543709       0.51123359 </v>
   <v>       0.41975557       0.47169909       0.52604883 </v>
   <v>       0.39158592       0.49712954       0.54704312 </v>
   <v>       0.51726139       0.40648766       0.47056040 </v>
   <v>       0.13642398       0.58198659       0.55180975 </v>
   <v>       0.02951864       0.52463776       0.50732785 </v>
   <v>       0.05346385       0.58116030       0.52441813 </v>
   <v>       0.10688989       0.60834734       0.54646122 </v>
   <v>       0.89055887       0.48601619       0.46590897 </v>
   <v>       0.44612529       0.86351822       0.55130880 </v>
   <v>       0.49516463       0.97111691       0.50746223 </v>
   <v>       0.52808876       0.94787589       0.52400421 </v>
   <v>       0.50208816       0.89405483       0.54566128 </v>
   <v>       0.59498254       0.11141310       0.46568821 </v>
   <v>       0.58319303       0.35701638       0.44600579 </v>
   <v>       0.41119205       0.63518165       0.56870669 </v>
   <v>       0.47231354       0.58296300       0.53879958 </v>
   <v>       0.51074348       0.48390802       0.48927676 </v>
   <v>       0.56634091       0.51805095       0.46989370 </v>
   <v>       0.59555896       0.49294771       0.45264543 </v>
   <v>       0.57191454       0.43672884       0.45285023 </v>
   <v>       0.10984849       0.52684331       0.53476971 </v>
   <v>       0.97357323       0.49119765       0.48422164 </v>
   <v>       0.95115694       0.43577030       0.46270357 </v>
   <v>       0.89682064       0.40723243       0.44490656 </v>
   <v>       0.86519289       0.43146415       0.44636663 </v>
   <v>       0.41723085       0.88948614       0.53487845 </v>
   <v>       0.51734643       0.02733763       0.48476706 </v>
   <v>       0.48394176       0.04937327       0.46513731 </v>
   <v>       0.50947713       0.10409276       0.44792076 </v>
   <v>       0.56544958       0.13646633       0.44815335 </v>
  </varray>
 </structure>
 <calculation>
  <scstep>
   <time name="dav">  559.55  565.01</time>
   <time name="total">  559.84  565.31</time>
   <energy>
    <i name="alphaZ">     34.19489320 </i>
    <i name="ewald">  39466.34958717 </i>
    <i name="hartreedc"> -50183.07569012 </i>
    <i name="XCdc">   1188.34686634 </i>
    <i name="pawpsdc">  31106.89341432 </i>
    <i name="pawaedc"> -31171.42834521 </i>
    <i name="eentropy">     -0.00000000 </i>
    <i name="bandstr">  -4225.80040833 </i>
    <i name="atom">  13053.50015217 </i>
    <i name="e_fr_energy">   -731.01953046 </i>
    <i name="e_wo_entrp">   -731.01953046 </i>
    <i name="e_0_energy">   -731.01953046 </i>
   </energy>
  </scstep>
  <scstep>
   <time name="dav">  626.45  632.44</time>
   <time name="total">  626.47  632.46</time>
   <energy>
    <i name="e_fr_energy">   -731.65922767 </i>
    <i name="e_wo_entrp">   -731.65922767 </i>
    <i name="e_0_energy">   -731.65922767 </i>
   </energy>
  </scstep>
  <scstep>
   <time name="dav">  704.36  711.01</time>
   <time name="total">  704.38  711.03</time>
   <energy>
    <i name="e_fr_energy">   -731.67525034 </i>
    <i name="e_wo_entrp">   -731.67525034 </i>
    <i name="e_0_energy">   -731.67525034 </i>
   </energy>
  </scstep>
  <scstep>
   <time name="dav">  627.64  633.62</time>
   <time name="total">  627.66  633.65</time>
   <energy>
    <i name="e_fr_energy">   -731.67546396 </i>
    <i name="e_wo_entrp">   -731.67546396 </i>
    <i name="e_0_energy">   -731.67546396 </i>
   </energy>
  </scstep>
  <scstep>
   <time name="dav">  589.07  594.58</time>
   <time name="total">  589.10  594.62</time>
   <energy>
    <i name="alphaZ">     34.19489320 </i>
    <i name="ewald">  39466.34958717 </i>
    <i name="hartreedc"> -50183.07569012 </i>
    <i name="XCdc">   1188.34686634 </i>
    <i name="pawpsdc">  31106.89341432 </i>
    <i name="pawaedc"> -31171.42834521 </i>
    <i name="eentropy">     -0.00000000 </i>
    <i name="bandstr">  -4226.45635044 </i>
    <i name="atom">  13053.50015217 </i>
    <i name="e_fr_energy">   -731.67547257 </i>
    <i name="e_wo_entrp">   -731.67547257 </i>
    <i name="e_0_energy">   -731.67547257 </i>
   </energy>
  </scstep>
  <structure>
   <crystal>
    <varray name="basis" >
     <v>      28.85378057      -0.02775212       0.00000000 </v>
     <v>     -14.45140141      24.79838860       0.00000000 </v>
     <v>       0.00000000       0.00000000      20.00000000 </v>
    </varray>
    <i name="volume">  14302.52412292 </i>
    <varray name="rec_basis" >
     <v>       0.03467694       0.02020818       0.00000000 </v>
     <v>       0.00003881       0.04034782       0.00000000 </v>
     <v>       0.00000000       0.00000000       0.05000000 </v>
    </varray>
   </crystal>
   <varray name="positions" >
    <v>       0.67890834       0.38762685       0.44250204 </v>
    <v>       0.61546382       0.29359306       0.44184764 </v>
    <v>       0.70890378       0.32421150       0.43980695 </v>
    <v>       0.31723717       0.61191351       0.57054371 </v>
    <v>       0.38639418       0.70416086       0.57101552 </v>
    <v>       0.29483287       0.68114146       0.57011405 </v>
    <v>       0.48913343       0.42989191       0.48799142 </v>
    <v>       0.39400152       0.41702094       0.51847800 </v>
    <v>       0.38896794       0.57792237       0.57479892 </v>
    <v>       0.94208819       0.51343558       0.48405644 </v>
    <v>       0.02567459       0.60778249       0.51802808 </v>
    <v>       0.18907178       0.60927282       0.57366826 </v>
    <v>       0.57116671       0.05950498       0.48324157 </v>
    <v>       0.58255242       0.97676213       0.51765441 </v>
    <v>       0.42091338       0.81054973       0.57291915 </v>
    <v>       0.49946438       0.55930596       0.51844635 </v>
    <v>       0.58976110       0.57285786       0.46690133 </v>
    <v>       0.60166904       0.41312846       0.43504214 </v>
    <v>       0.05912602       0.50058404       0.51354790 </v>
    <v>       0.98169690       0.41191838       0.45834744 </v>
    <v>       0.81175298       0.40226905       0.42799041 </v>
    <v>       0.44146520       0.94052805       0.51400210 </v>
    <v>       0.42941250       0.01812323       0.46210767 </v>
    <v>       0.58946881       0.19029052       0.43057455 </v>
    <v>       0.56393028       0.34280131       0.49574296 </v>
    <v>       0.65936580       0.22181749       0.49123786 </v>
    <v>       0.78141333       0.43975719       0.49203779 </v>
    <v>       0.44087807       0.65798157       0.60829800 </v>
    <v>       0.34135681       0.78303621       0.60598052 </v>
    <v>       0.21590097       0.55635775       0.60582399 </v>
    <v>       0.34873235       0.47231849       0.55808542 </v>
    <v>       0.49556300       0.36242741       0.47057315 </v>
    <v>       0.35648586       0.39419354       0.53697799 </v>
    <v>       0.41879161       0.40161043       0.50917973 </v>
    <v>       0.34821444       0.55643932       0.57162020 </v>
    <v>       0.12571950       0.65112304       0.55938979 </v>
    <v>       0.86901366       0.50822739       0.46680260 </v>
    <v>       0.04094454       0.64503309       0.53806550 </v>
    <v>       0.98539451       0.58350242       0.50784239 </v>
    <v>       0.20910798       0.65030243       0.57196115 </v>
    <v>       0.52630496       0.87573825       0.55805546 </v>
    <v>       0.63881188       0.13357221       0.46551450 </v>
    <v>       0.60490872       0.96180558       0.53652732 </v>
    <v>       0.59831497       0.01705215       0.50670895 </v>
    <v>       0.44199690       0.79089705       0.57137922 </v>
    <v>       0.55261128       0.33059484       0.40913827 </v>
    <v>       0.67154907       0.22410796       0.40450983 </v>
    <v>       0.77800118       0.45132613       0.40600923 </v>
    <v>       0.43307096       0.65120450       0.52081712 </v>
    <v>       0.34817573       0.78103617       0.51861929 </v>
    <v>       0.21753106       0.56550643       0.51851543 </v>
    <v>       0.63767465       0.51806103       0.43815624 </v>
    <v>       0.49537242       0.62682118       0.54357697 </v>
    <v>       0.56768599       0.58806132       0.48839468 </v>
    <v>       0.62996335       0.59551065       0.46068841 </v>
    <v>       0.64235974       0.43678951       0.43569877 </v>
    <v>       0.87900079       0.36515220       0.42912189 </v>
    <v>       0.12974647       0.50314703       0.53847492 </v>
    <v>       0.01884427       0.43322044       0.48071387 </v>
    <v>       0.96330760       0.37162514       0.45072694 </v>
    <v>       0.79414646       0.36133343       0.42829349 </v>
    <v>       0.48491652       0.12160233       0.43355680 </v>
    <v>       0.37357409       0.86887449       0.53890461 </v>
    <v>       0.41388616       0.98047875       0.48341478 </v>
    <v>       0.40724497       0.03604872       0.45552305 </v>
    <v>       0.56629620       0.20772656       0.43202331 </v>
    <v>       0.71766715       0.37456579       0.44100025 </v>
    <v>       0.62873106       0.34581560       0.44292354 </v>
    <v>       0.65687948       0.28505050       0.44073669 </v>
    <v>       0.64536686       0.22780990       0.44189978 </v>
    <v>       0.77469691       0.42055688       0.44198332 </v>
    <v>       0.28174331       0.62941879       0.56999990 </v>
    <v>       0.36875671       0.65077579       0.57087009 </v>
    <v>       0.34797089       0.71705163       0.57016766 </v>
    <v>       0.36391537       0.77553132       0.56685538 </v>
    <v>       0.22343027       0.58677539       0.56693006 </v>
    <v>       0.41707159       0.55327354       0.55370821 </v>
    <v>       0.47634134       0.50543709       0.51123359 </v>
    <v>       0.41975557       0.47169909       0.52604883 </v>
    <v>       0.39158592       0.49712954       0.54704312 </v>
    <v>       0.51726139       0.40648766       0.47056040 </v>
    <v>       0.13642398       0.58198659       0.55180975 </v>
    <v>       0.02951864       0.52463776       0.50732785 </v>
    <v>       0.05346385       0.58116030       0.52441813 </v>
    <v>       0.10688989       0.60834734       0.54646122 </v>
    <v>       0.89055887       0.48601619       0.46590897 </v>
    <v>       0.44612529       0.86351822       0.55130880 </v>
    <v>       0.49516463       0.97111691       0.50746223 </v>
    <v>       0.52808876       0.94787589       0.52400421 </v>
    <v>       0.50208816       0.89405483       0.54566128 </v>
    <v>       0.59498254       0.11141310       0.46568821 </v>
    <v>       0.58319303       0.35701638       0.44600579 </v>
    <v>       0.41119205       0.63518165       0.56870669 </v>
    <v>       0.47231354       0.58296300       0.53879958 </v>
    <v>       0.51074348       0.48390802       0.48927676 </v>
    <v>       0.56634091       0.51805095       0.46989370 </v>
    <v>       0.59555896       0.49294771       0.45264543 </v>
    <v>       0.57191454       0.43672884       0.45285023 </v>
    <v>       0.10984849       0.52684331       0.53476971 </v>
    <v>       0.97357323       0.49119765       0.48422164 </v>
    <v>       0.95115694       0.43577030       0.46270357 </v>
    <v>       0.89682064       0.40723243       0.44490656 </v>
    <v>       0.86519289       0.43146415       0.44636663 </v>
    <v>       0.41723085       0.88948614       0.53487845 </v>
    <v>       0.51734643       0.02733763       0.48476706 </v>
    <v>       0.48394176       0.04937327       0.46513731 </v>
    <v>       0.50947713       0.10409276       0.44792076 </v>
    <v>       0.56544958       0.13646633       0.44815335 </v>
   </varray>
  </structure>
  <varray name="forces" >
   <v>       0.00005857      -0.00020753      -0.00014197 </v>
   <v>       0.00281399       0.00311231      -0.00055206 </v>
   <v>      -0.00369497      -0.00231760       0.00116824 </v>
   <v>       0.00113650      -0.00090889      -0.00068065 </v>
   <v>      -0.00353349       0.00164997       0.00325216 </v>
   <v>      -0.00217015      -0.00584452       0.00151784 </v>
   <v>      -0.00315536       0.00259307       0.00040451 </v>
   <v>       0.00025794       0.00353180       0.00089889 </v>
   <v>      -0.00111275       0.00057249      -0.00516668 </v>
   <v>      -0.00047837       0.00070670      -0.00312847 </v>
   <v>       0.00069372      -0.00532125       0.00329635 </v>
   <v>       0.00032778      -0.00205883      -0.00069925 </v>
   <v>      -0.00250376       0.00163992      -0.00389728 </v>
   <v>       0.00030582       0.00495664      -0.00418163 </v>
   <v>       0.00188222       0.00083538      -0.00174447 </v>
   <v>       0.00327019      -0.00388135       0.00155681 </v>
   <v>      -0.00513715       0.00388143       0.00382719 </v>
   <v>       0.00502840       0.00096345      -0.00327985 </v>
   <v>       0.00033440       0.00426643       0.00183165 </v>
   <v>      -0.00050059       0.00067689      -0.00170434 </v>
   <v>      -0.00004403       0.00101296      -0.00045071 </v>
   <v>      -0.00392554       0.00199865       0.00686553 </v>
   <v>      -0.00267829       0.00062431       0.00178720 </v>
   <v>      -0.00256677      -0.00040112       0.00252889 </v>
   <v>      -0.00085125      -0.00258540      -0.00249406 </v>
   <v>      -0.00243855       0.00044387      -0.00409968 </v>
   <v>      -0.00492746      -0.00056830       0.00107422 </v>
   <v>      -0.00474824       0.00132223       0.00254858 </v>
   <v>      -0.00176067      -0.00158716       0.00031541 </v>
   <v>      -0.00092637      -0.00172923       0.00052907 </v>
   <v>       0.00140395       0.00120971      -0.00252553 </v>
   <v>       0.00005476      -0.00084781       0.00121908 </v>
   <v>      -0.00008831      -0.00197255      -0.00316497 </v>
   <v>       0.00024404      -0.00143281      -0.00310441 </v>
   <v>      -0.00008970      -0.00451278       0.00435307 </v>
   <v>       0.00021366      -0.00248213      -0.00671801 </v>
   <v>       0.00387751      -0.00376522       0.00145317 </v>
   <v>      -0.00007785       0.00223536      -0.00390308 </v>
   <v>      -0.00097767       0.00038449      -0.00177763 </v>
   <v>      -0.00089740       0.00598881      -0.00011374 </v>
   <v>      -0.00282756       0.00076630      -0.00119707 </v>
   <v>       0.00127205      -0.00167220      -0.00070621 </v>
   <v>      -0.00080823      -0.00143970      -0.00380655 </v>
   <v>       0.00227595      -0.00113746       0.00005545 </v>
   <v>       0.00063405      -0.00073581      -0.00098160 </v>
   <v>      -0.00022852       0.00268060       0.00070430 </v>
   <v>      -0.00156095       0.00195081      -0.00335125 </v>
   <v>       0.00092695       0.00087309      -0.00157094 </v>
   <v>       0.00122513       0.00048147       0.00147796 </v>
   <v>       0.00059639       0.00225214       0.00006189 </v>
   <v>       0.00108350       0.00155404       0.00034870 </v>
   <v>      -0.00033528       0.00120925       0.00612020 </v>
   <v>      -0.00264311       0.00148431       0.00043254 </v>
   <v>       0.00343832      -0.00223433      -0.00440347 </v>
   <v>       0.00188028      -0.00477775       0.00327129 </v>
   <v>       0.00093889       0.00266548       0.00186203 </v>
   <v>       0.00249154      -0.00048659       0.00050232 </v>
   <v>       0.00345929      -0.00135295       0.00319470 </v>
   <v>       0.00262116      -0.00104470       0.00058058 </v>
   <v>       0.00163209      -0.00088264       0.00290831 </v>
   <v>      -0.00111863      -0.00183890      -0.00316808 </v>
   <v>       0.00107733      -0.00216372       0.00310649 </v>
   <v>      -0.00115607      -0.00416763       0.00148503 </v>
   <v>       0.00211072      -0.00467096       0.00560887 </v>
   <v>       0.00232511       0.00301890       0.00267123 </v>
   <v>      -0.00118346       0.00066737       0.00050381 </v>
   <v>       0.00027615      -0.00080475       0.00032936 </v>
   <v>      -0.00385291       0.00163663      -0.00030366 </v>
   <v>       0.00179874      -0.00061853      -0.00166477 </v>
   <v>       0.00657063       0.00233605       0.00109739 </v>
   <v>       0.00184033      -0.00010624       0.00005463 </v>
   <v>       0.00133085       0.00270998       0.00014772 </v>
   <v>       0.00059738       0.00032285       0.00086328 </v>
   <v>      -0.00093587      -0.00098327       0.00166154 </v>
   <v>       0.00167505      -0.00253375       0.00086152 </v>
   <v>       0.00203022       0.00151306       0.00033570 </v>
   <v>      -0.00000655       0.00450744      -0.00262615 </v>
   <v>      -0.00173578       0.00075912      -0.00455768 </v>
   <v>      -0.00478072       0.00646214      -0.00191247 </v>
   <v>       0.00640238      -0.00464062       0.00042419 </v>
   <v>       0.00574852      -0.00320189       0.00498882 </v>
   <v>      -0.00444330      -0.00193108      -0.00450879 </v>
   <v>       0.00093204       0.00092512       0.00224149 </v>
   <v>       0.00100573       0.00030845       0.00223403 </v>
   <v>       0.00109912      -0.00257287      -0.00182531 </v>
   <v>      -0.00443117      -0.00357367       0.00143345 </v>
   <v>      -0.00170223       0.00348525      -0.00112057 </v>
   <v>      -0.00275273      -0.00036882       0.00519726 </v>
   <v>      -0.00102095      -0.00253150      -0.00039310 </v>
   <v>       0.00314343      -0.00232628      -0.00386807 </v>
   <v>       0.00759201      -0.00000109      -0.00117367 </v>
   <v>      -0.00216478       0.00116618       0.00225607 </v>
   <v>      -0.00162847       0.00315901      -0.00071642 </v>
   <v>      -0.00459753       0.00157715      -0.00151278 </v>
   <v>      -0.00066384       0.00083141      -0.00418328 </v>
   <v>       0.00329787       0.00488330      -0.00269402 </v>
   <v>      -0.00180100       0.00265700      -0.00014204 </v>
   <v>       0.00721777       0.00317561       0.00023147 </v>
   <v>      -0.00293752       0.00024591      -0.00211316 </v>
   <v>       0.00255417      -0.00381668      -0.00081974 </v>
   <v>      -0.00024444      -0.00234251      -0.00217786 </v>
   <v>      -0.00287879      -0.00264439      -0.00213578 </v>
   <v>       0.00624795       0.00164140       0.00152786 </v>
   <v>       0.00208947      -0.00058758       0.00721122 </v>
   <v>      -0.00216615       0.00019028      -0.00066889 </v>
   <v>      -0.00181359      -0.00435399       0.00344228 </v>
   <v>      -0.00319122       0.00103990       0.00133058 </v>
   <v>      -0.00444591       0.00122546       0.00063836 </v>
  </varray>
  <varray name="stress" >
   <v>      -0.00891381      -0.00005809       0.01035032 </v>
   <v>      -0.00005809      -0.01008781       0.00588956 </v>
   <v>       0.01035032       0.00588957      -0.19094841 </v>
  </varray>
  <energy>
   <i name="e_fr_energy">   -733.62807391 </i>
   <i name="e_wo_entrp">   -733.62807391 </i>
   <i name="e_0_energy">     -0.00000000 </i>
  </energy>
  <time name="totalsc"> 3686.20 3722.96</time>
  <eigenvalues>
   <array>
    <dimension dim="1">band</dimension>
    <dimension dim="2">kpoint</dimension>
    <dimension dim="3">spin</dimension>
    <field>eigene</field>
    <field>occ</field>
    <set>
     <set comment="spin 1">
      <set comment="kpoint 1">
       <r>  -26.0861    1.0000 </r>
       <r>  -26.0481    1.0000 </r>
       <r>  -23.7050    1.0000 </r>
       <r>  -23.7041    1.0000 </r>
       <r>  -23.6638    1.0000 </r>
       <r>  -23.6631    1.0000 </r>
       <r>  -23.5167    1.0000 </r>
       <r>  -23.3734    1.0000 </r>
       <r>  -23.2458    1.0000 </r>
       <r>  -23.2449    1.0000 </r>
       <r>  -23.0230    1.0000 </r>
       <r>  -22.8370    1.0000 </r>
       <r>  -22.8360    1.0000 </r>
       <r>  -22.6276    1.0000 </r>
       <r>  -22.6250    1.0000 </r>
       <r>  -22.4893    1.0000 </r>
       <r>  -22.3985    1.0000 </r>
       <r>  -22.3968    1.0000 </r>
       <r>  -22.2105    1.0000 </r>
       <r>  -22.2072    1.0000 </r>
       <r>  -22.2068    1.0000 </r>
       <r>  -21.8420    1.0000 </r>
       <r>  -21.8395    1.0000 </r>
       <r>  -21.8368    1.0000 </r>
       <r>  -19.4426    1.0000 </r>
       <r>  -19.4403    1.0000 </r>
       <r>  -19.2921    1.0000 </r>
       <r>  -19.2898    1.0000 </r>
       <r>  -19.2327    1.0000 </r>
       <r>  -19.0109    1.0000 </r>
       <r>  -18.2816    1.0000 </r>
       <r>  -18.2801    1.0000 </r>
       <r>  -18.2674    1.0000 </r>
       <r>  -18.1332    1.0000 </r>
       <r>  -18.1310    1.0000 </r>
       <r>  -18.0690    1.0000 </r>
       <r>  -18.0665    1.0000 </r>
       <r>  -17.6349    1.0000 </r>
       <r>  -17.5092    1.0000 </r>
       <r>  -17.1346    1.0000 </r>
       <r>  -17.1327    1.0000 </r>
       <r>  -16.9843    1.0000 </r>
       <r>  -15.8602    1.0000 </r>
       <r>  -15.8586    1.0000 </r>
       <r>  -15.8162    1.0000 </r>
       <r>  -15.8143    1.0000 </r>
       <r>  -15.6232    1.0000 </r>
       <r>  -15.4090    1.0000 </r>
       <r>  -15.4065    1.0000 </r>
       <r>  -15.2295    1.0000 </r>
       <r>  -15.0137    1.0000 </r>
       <r>  -15.0125    1.0000 </r>
       <r>  -14.7856    1.0000 </r>
       <r>  -14.7159    1.0000 </r>
       <r>  -14.3824    1.0000 </r>
       <r>  -14.3780    1.0000 </r>
       <r>  -14.3145    1.0000 </r>
       <r>  -14.3121    1.0000 </r>
       <r>  -14.0538    1.0000 </r>
       <r>  -13.9596    1.0000 </r>
       <r>  -13.6314    1.0000 </r>
       <r>  -13.2087    1.0000 </r>
       <r>  -13.1869    1.0000 </r>
       <r>  -13.1836    1.0000 </r>
       <r>  -12.7171    1.0000 </r>
       <r>  -12.7156    1.0000 </r>
       <r>  -12.5732    1.0000 </r>
       <r>  -12.5617    1.0000 </r>
       <r>  -12.5605    1.0000 </r>
       <r>  -12.4873    1.0000 </r>
       <r>  -12.4846    1.0000 </r>
       <r>  -12.4514    1.0000 </r>
       <r>  -12.3086    1.0000 </r>
       <r>  -12.2468    1.0000 </r>
       <r>  -12.2202    1.0000 </r>
       <r>  -12.2177    1.0000 </r>
       <r>  -12.1662    1.0000 </r>
       <r>  -12.0921    1.0000 </r>
       <r>  -11.7569    1.0000 </r>
       <r>  -11.5826    1.0000 </r>
       <r>  -11.5790    1.0000 </r>
       <r>  -11.5252    1.0000 </r>
       <r>  -11.5207    1.0000 </r>
       <r>  -11.2961    1.0000 </r>
       <r>  -11.2889    1.0000 </r>
       <r>  -11.2650    1.0000 </r>
       <r>  -11.2642    1.0000 </r>
       <r>  -11.1132    1.0000 </r>
       <r>  -11.1098    1.0000 </r>
       <r>  -11.1027    1.0000 </r>
       <r>  -10.9272    1.0000 </r>
       <r>  -10.9028    1.0000 </r>
       <r>  -10.8998    1.0000 </r>
       <r>  -10.8082    1.0000 </r>
       <r>  -10.7730    1.0000 </r>
       <r>  -10.7707    1.0000 </r>
       <r>  -10.5079    1.0000 </r>
       <r>  -10.4484    1.0000 </r>
       <r>  -10.3007    1.0000 </r>
       <r>  -10.2711    1.0000 </r>
       <r>  -10.1157    1.0000 </r>
       <r>  -10.1130    1.0000 </r>
       <r>  -10.0768    1.0000 </r>
       <r>   -9.9057    1.0000 </r>
       <r>   -9.9050    1.0000 </r>
       <r>   -9.7833    1.0000 </r>
       <r>   -9.7781    1.0000 </r>
       <r>   -9.7592    1.0000 </r>
       <r>   -9.6480    1.0000 </r>
       <r>   -9.6435    1.0000 </r>
       <r>   -9.5988    1.0000 </r>
       <r>   -9.4584    1.0000 </r>
       <r>   -9.4549    1.0000 </r>
       <r>   -9.2917    1.0000 </r>
       <r>   -9.2637    1.0000 </r>
       <r>   -9.2516    1.0000 </r>
       <r>   -9.2503    1.0000 </r>
       <r>   -9.1021    1.0000 </r>
       <r>   -9.0942    1.0000 </r>
       <r>   -9.0919    1.0000 </r>
       <r>   -9.0418    1.0000 </r>
       <r>   -8.9769    1.0000 </r>
       <r>   -8.9749    1.0000 </r>
       <r>   -8.9677    1.0000 </r>
       <r>   -8.4801    1.0000 </r>
       <r>   -8.4797    1.0000 </r>
       <r>   -8.4511    1.0000 </r>
       <r>   -8.3847    1.0000 </r>
       <r>   -8.3831    1.0000 </r>
       <r>   -8.2183    1.0000 </r>
       <r>   -8.2173    1.0000 </r>
       <r>   -7.7640    1.0000 </r>
       <r>   -7.7547    1.0000 </r>
       <r>   -7.7327    1.0000 </r>
       <r>   -7.7316    1.0000 </r>
       <r>   -7.6219    1.0000 </r>
       <r>   -7.6207    1.0000 </r>
       <r>   -7.4081    1.0000 </r>
       <r>   -7.4056    1.0000 </r>
       <r>   -7.4035    1.0000 </r>
       <r>   -7.1381    1.0000 </r>
       <r>   -7.1100    1.0000 </r>
       <r>   -7.1094    1.0000 </r>
       <r>   -6.6941    1.0000 </r>
       <r>   -6.6930    1.0000 </r>
       <r>   -6.6670    1.0000 </r>
       <r>   -6.6660    1.0000 </r>
       <r>   -5.6133    1.0000 </r>
       <r>   -5.6066    1.0000 </r>
       <r>   -5.6060    1.0000 </r>
       <r>   -5.2513    1.0000 </r>
       <r>   -5.2472    1.0000 </r>
       <r>   -5.2438    1.0000 </r>
       <r>   -5.0996    1.0000 </r>
       <r>   -5.0981    1.0000 </r>
       <r>   -5.0924    1.0000 </r>
       <r>   -4.7252    1.0000 </r>
       <r>   -4.7217    1.0000 </r>
       <r>   -4.7161    1.0000 </r>
       <r>   -4.6997    1.0000 </r>
       <r>   -4.6966    1.0000 </r>
       <r>   -4.6860    1.0000 </r>
       <r>   -3.8407    1.0000 </r>
       <r>   -3.8383    1.0000 </r>
       <r>   -3.8306    1.0000 </r>
       <r>   -2.5518    0.0000 </r>
       <r>   -2.5499    0.0000 </r>
       <r>   -2.5074    0.0000 </r>
       <r>   -2.5048    0.0000 </r>
       <r>   -1.3382    0.0000 </r>
       <r>   -1.3096    0.0000 </r>
       <r>   -1.3079    0.0000 </r>
       <r>   -0.7497    0.0000 </r>
       <r>   -0.7406    0.0000 </r>
       <r>   -0.7335    0.0000 </r>
       <r>   -0.5410    0.0000 </r>
       <r>   -0.5082    0.0000 </r>
       <r>   -0.2672    0.0000 </r>
       <r>   -0.2647    0.0000 </r>
       <r>   -0.2248    0.0000 </r>
       <r>   -0.2228    0.0000 </r>
       <r>   -0.2178    0.0000 </r>
       <r>   -0.1975    0.0000 </r>
       <r>   -0.1940    0.0000 </r>
       <r>    0.0119    0.0000 </r>
       <r>    0.0738    0.0000 </r>
       <r>    0.1334    0.0000 </r>
       <r>    0.1344    0.0000 </r>
       <r>    0.1530    0.0000 </r>
       <r>    0.1736    0.0000 </r>
       <r>    0.2086    0.0000 </r>
       <r>    0.2122    0.0000 </r>
       <r>    0.3924    0.0000 </r>
       <r>    0.4924    0.0000 </r>
       <r>    0.5189    0.0000 </r>
       <r>    0.5205    0.0000 </r>
       <r>    0.5611    0.0000 </r>
       <r>    0.5641    0.0000 </r>
       <r>    0.5772    0.0000 </r>
       <r>    0.5912    0.0000 </r>
       <r>    0.5963    0.0000 </r>
       <r>    0.6121    0.0000 </r>
       <r>    0.6180    0.0000 </r>
       <r>    0.6194    0.0000 </r>
       <r>    0.7320    0.0000 </r>
       <r>    0.7511    0.0000 </r>
       <r>    0.7520    0.0000 </r>
       <r>    0.7627    0.0000 </r>
       <r>    0.7644    0.0000 </r>
       <r>    0.7878    0.0000 </r>
       <r>    0.8145    0.0000 </r>
       <r>    0.8204    0.0000 </r>
       <r>    0.8223    0.0000 </r>
       <r>    0.8484    0.0000 </r>
       <r>    0.9276    0.0000 </r>
       <r>    0.9480    0.0000 </r>
       <r>    0.9496    0.0000 </r>
       <r>    0.9923    0.0000 </r>
       <r>    0.9979    0.0000 </r>
       <r>    0.9992    0.0000 </r>
       <r>    1.0239    0.0000 </r>
       <r>    1.0637    0.0000 </r>
       <r>    1.0684    0.0000 </r>
       <r>    1.0747    0.0000 </r>
      </set>
      <set comment="kpoint 2">
       <r>  -26.0861    1.0000 </r>
       <r>  -26.0481    1.0000 </r>
       <r>  -23.7049    1.0000 </r>
       <r>  -23.7041    1.0000 </r>
       <r>  -23.6638    1.0000 </r>
       <r>  -23.6632    1.0000 </r>
       <r>  -23.5165    1.0000 </r>
       <r>  -23.3738    1.0000 </r>
       <r>  -23.2457    1.0000 </r>
       <r>  -23.2445    1.0000 </r>
       <r>  -23.0235    1.0000 </r>
       <r>  -22.8366    1.0000 </r>
       <r>  -22.8360    1.0000 </r>
       <r>  -22.6279    1.0000 </r>
       <r>  -22.6251    1.0000 </r>
       <r>  -22.4890    1.0000 </r>
       <r>  -22.3986    1.0000 </r>
       <r>  -22.3968    1.0000 </r>
       <r>  -22.2105    1.0000 </r>
       <r>  -22.2072    1.0000 </r>
       <r>  -22.2068    1.0000 </r>
       <r>  -21.8420    1.0000 </r>
       <r>  -21.8395    1.0000 </r>
       <r>  -21.8368    1.0000 </r>
       <r>  -19.4426    1.0000 </r>
       <r>  -19.4403    1.0000 </r>
       <r>  -19.2926    1.0000 </r>
       <r>  -19.2903    1.0000 </r>
       <r>  -19.2316    1.0000 </r>
       <r>  -19.0112    1.0000 </r>
       <r>  -18.2815    1.0000 </r>
       <r>  -18.2801    1.0000 </r>
       <r>  -18.2674    1.0000 </r>
       <r>  -18.1331    1.0000 </r>
       <r>  -18.1310    1.0000 </r>
       <r>  -18.0691    1.0000 </r>
       <r>  -18.0665    1.0000 </r>
       <r>  -17.6348    1.0000 </r>
       <r>  -17.5094    1.0000 </r>
       <r>  -17.1343    1.0000 </r>
       <r>  -17.1327    1.0000 </r>
       <r>  -16.9845    1.0000 </r>
       <r>  -15.8604    1.0000 </r>
       <r>  -15.8588    1.0000 </r>
       <r>  -15.8161    1.0000 </r>
       <r>  -15.8141    1.0000 </r>
       <r>  -15.6229    1.0000 </r>
       <r>  -15.4094    1.0000 </r>
       <r>  -15.4067    1.0000 </r>
       <r>  -15.2291    1.0000 </r>
       <r>  -15.0138    1.0000 </r>
       <r>  -15.0128    1.0000 </r>
       <r>  -14.7852    1.0000 </r>
       <r>  -14.7156    1.0000 </r>
       <r>  -14.3829    1.0000 </r>
       <r>  -14.3781    1.0000 </r>
       <r>  -14.3145    1.0000 </r>
       <r>  -14.3121    1.0000 </r>
       <r>  -14.0536    1.0000 </r>
       <r>  -13.9597    1.0000 </r>
       <r>  -13.6309    1.0000 </r>
       <r>  -13.2164    1.0000 </r>
       <r>  -13.1855    1.0000 </r>
       <r>  -13.1771    1.0000 </r>
       <r>  -12.7173    1.0000 </r>
       <r>  -12.7155    1.0000 </r>
       <r>  -12.5735    1.0000 </r>
       <r>  -12.5626    1.0000 </r>
       <r>  -12.5610    1.0000 </r>
       <r>  -12.4870    1.0000 </r>
       <r>  -12.4841    1.0000 </r>
       <r>  -12.4510    1.0000 </r>
       <r>  -12.3085    1.0000 </r>
       <r>  -12.2468    1.0000 </r>
       <r>  -12.2204    1.0000 </r>
       <r>  -12.2177    1.0000 </r>
       <r>  -12.1664    1.0000 </r>
       <r>  -12.0912    1.0000 </r>
       <r>  -11.7573    1.0000 </r>
       <r>  -11.5826    1.0000 </r>
       <r>  -11.5791    1.0000 </r>
       <r>  -11.5252    1.0000 </r>
       <r>  -11.5207    1.0000 </r>
       <r>  -11.2963    1.0000 </r>
       <r>  -11.2891    1.0000 </r>
       <r>  -11.2648    1.0000 </r>
       <r>  -11.2638    1.0000 </r>
       <r>  -11.1133    1.0000 </r>
       <r>  -11.1098    1.0000 </r>
       <r>  -11.1029    1.0000 </r>
       <r>  -10.9271    1.0000 </r>
       <r>  -10.9028    1.0000 </r>
       <r>  -10.8998    1.0000 </r>
       <r>  -10.8082    1.0000 </r>
       <r>  -10.7730    1.0000 </r>
       <r>  -10.7707    1.0000 </r>
       <r>  -10.5078    1.0000 </r>
       <r>  -10.4484    1.0000 </r>
       <r>  -10.3008    1.0000 </r>
       <r>  -10.2712    1.0000 </r>
       <r>  -10.1157    1.0000 </r>
       <r>  -10.1130    1.0000 </r>
       <r>  -10.0769    1.0000 </r>
       <r>   -9.9056    1.0000 </r>
       <r>   -9.9049    1.0000 </r>
       <r>   -9.7832    1.0000 </r>
       <r>   -9.7781    1.0000 </r>
       <r>   -9.7594    1.0000 </r>
       <r>   -9.6487    1.0000 </r>
       <r>   -9.6435    1.0000 </r>
       <r>   -9.5982    1.0000 </r>
       <r>   -9.4586    1.0000 </r>
       <r>   -9.4549    1.0000 </r>
[...]
       <r>   -22.7561    14.7931    25.0611 </r>
       <r>   -22.6563    18.2130    27.6680 </r>
       <r>   -22.5565    22.0410    30.0000 </r>
       <r>   -22.4567     5.1526    30.5143 </r>
       <r>   -22.3569    43.4128    36.0000 </r>
       <r>   -22.2571     0.0000    36.0000 </r>
       <r>   -22.1573    60.1152    42.0000 </r>
       <r>   -22.0574     0.0000    42.0000 </r>
       <r>   -21.9576     0.0000    42.0000 </r>
       <r>   -21.8578     0.3572    42.0357 </r>
       <r>   -21.7580    20.0069    48.0000 </r>
       <r>   -21.6582     0.0000    48.0000 </r>
       <r>   -21.5584     0.0000    48.0000 </r>
       <r>   -21.4586     0.0000    48.0000 </r>
       <r>   -21.3588     0.0000    48.0000 </r>
       <r>   -21.2590     0.0000    48.0000 </r>
       <r>   -21.1592     0.0000    48.0000 </r>
       <r>   -21.0594     0.0000    48.0000 </r>
       <r>   -20.9596     0.0000    48.0000 </r>
       <r>   -20.8598     0.0000    48.0000 </r>
       <r>   -20.7599     0.0000    48.0000 </r>
       <r>   -20.6601     0.0000    48.0000 </r>
       <r>   -20.5603     0.0000    48.0000 </r>
       <r>   -20.4605     0.0000    48.0000 </r>
       <r>   -20.3607     0.0000    48.0000 </r>
       <r>   -20.2609     0.0000    48.0000 </r>
       <r>   -20.1611     0.0000    48.0000 </r>
       <r>   -20.0613     0.0000    48.0000 </r>
       <r>   -19.9615     0.0000    48.0000 </r>
       <r>   -19.8617     0.0000    48.0000 </r>
       <r>   -19.7619     0.0000    48.0000 </r>
       <r>   -19.6621     0.0000    48.0000 </r>
       <r>   -19.5622     0.0000    48.0000 </r>
       <r>   -19.4624     0.0347    48.0035 </r>
       <r>   -19.3626    54.2013    53.4132 </r>
       <r>   -19.2628    23.7112    55.9999 </r>
       <r>   -19.1630     4.1379    56.4130 </r>
       <r>   -19.0632    27.2380    59.2187 </r>
       <r>   -18.9634     4.3411    60.0000 </r>
       <r>   -18.8636     0.0000    60.0000 </r>
       <r>   -18.7638     0.0000    60.0000 </r>
       <r>   -18.6640     0.0000    60.0000 </r>
       <r>   -18.5642     0.0000    60.0000 </r>
       <r>   -18.4644     0.0000    60.0000 </r>
       <r>   -18.3645     0.0000    60.0000 </r>
       <r>   -18.2647    53.5088    65.3406 </r>
       <r>   -18.1649     0.0002    66.0000 </r>
       <r>   -18.0651    70.3733    73.0239 </r>
       <r>   -17.9653     0.0000    74.0000 </r>
       <r>   -17.8655     0.0000    74.0000 </r>
       <r>   -17.7657     0.0000    74.0000 </r>
       <r>   -17.6659     0.0000    74.0000 </r>
       <r>   -17.5661    28.6665    76.8612 </r>
       <r>   -17.4663     4.6749    78.0000 </r>
       <r>   -17.3665     0.0000    78.0000 </r>
       <r>   -17.2667     0.0000    78.0000 </r>
       <r>   -17.1668     0.0000    78.0000 </r>
       <r>   -17.0670    32.7604    81.2698 </r>
       <r>   -16.9672    20.0267    83.9990 </r>
       <r>   -16.8674     0.0000    84.0000 </r>
       <r>   -16.7676     0.0000    84.0000 </r>
       <r>   -16.6678     0.0000    84.0000 </r>
       <r>   -16.5680     0.0000    84.0000 </r>
       <r>   -16.4682     0.0000    84.0000 </r>
       <r>   -16.3684     0.0000    84.0000 </r>
       <r>   -16.2686     0.0000    84.0000 </r>
       <r>   -16.1688     0.0000    84.0000 </r>
       <r>   -16.0690     0.0000    84.0000 </r>
       <r>   -15.9691     0.0000    84.0000 </r>
       <r>   -15.8693    22.0107    86.1968 </r>
       <r>   -15.7695    38.0235    91.7951 </r>
       <r>   -15.6697     0.0000    92.0000 </r>
       <r>   -15.5699     4.7897    92.4781 </r>
       <r>   -15.4701    29.4731    95.5419 </r>
       <r>   -15.3703    23.7119    98.0000 </r>
       <r>   -15.2705     0.0000    98.0000 </r>
       <r>   -15.1707     7.6856    98.7671 </r>
       <r>   -15.0709    19.5119   101.4810 </r>
       <r>   -14.9711    23.6463   103.9934 </r>
       <r>   -14.8713     0.0000   104.0000 </r>
       <r>   -14.7714     2.2023   104.2198 </r>
       <r>   -14.6716    34.1357   107.7737 </r>
       <r>   -14.5718     0.0000   108.0000 </r>
       <r>   -14.4720     0.0000   108.0000 </r>
       <r>   -14.3722    44.8578   112.4772 </r>
       <r>   -14.2724    31.1070   115.9049 </r>
       <r>   -14.1726     0.0000   116.0000 </r>
       <r>   -14.0728     0.0039   116.0004 </r>
       <r>   -13.9730    34.0375   119.4641 </r>
       <r>   -13.8732     0.0000   120.0000 </r>
       <r>   -13.7734     0.0000   120.0000 </r>
       <r>   -13.6736     0.0000   120.0000 </r>
       <r>   -13.5737     4.2450   120.4237 </r>
       <r>   -13.4739    16.6567   122.1625 </r>
       <r>   -13.3741    11.1124   123.5759 </r>
       <r>   -13.2743     1.8369   123.8167 </r>
       <r>   -13.1745    18.9625   125.7593 </r>
       <r>   -13.0747     1.7412   126.2738 </r>
       <r>   -12.9749     1.9866   126.4984 </r>
       <r>   -12.8751    14.1404   127.9780 </r>
       <r>   -12.7753    13.0409   129.5350 </r>
       <r>   -12.6755    23.7937   131.9749 </r>
       <r>   -12.5757    47.8986   136.7807 </r>
       <r>   -12.4759     8.7404   138.8724 </r>
       <r>   -12.3760    40.0699   144.0000 </r>
       <r>   -12.2762    10.5834   145.0563 </r>
       <r>   -12.1764    74.8688   153.7566 </r>
       <r>   -12.0766     1.6086   154.1606 </r>
       <r>   -11.9768     2.8235   154.5152 </r>
       <r>   -11.8770    18.0374   156.4005 </r>
       <r>   -11.7772     7.5192   157.7508 </r>
       <r>   -11.6774     0.6664   158.0000 </r>
       <r>   -11.5776    21.9536   160.1912 </r>
       <r>   -11.4778    45.7513   166.0000 </r>
       <r>   -11.3780     0.0000   166.0000 </r>
       <r>   -11.2782    39.0031   169.8928 </r>
       <r>   -11.1783    30.7214   174.0000 </r>
       <r>   -11.0785    60.1143   179.9999 </r>
       <r>   -10.9787     0.0000   180.0000 </r>
       <r>   -10.8789    59.8864   185.9772 </r>
       <r>   -10.7791    38.8778   189.8803 </r>
       <r>   -10.6793     0.0000   192.0000 </r>
       <r>   -10.5795     0.0000   192.0000 </r>
       <r>   -10.4797    12.4025   193.2379 </r>
       <r>   -10.3799     5.5090   196.0000 </r>
       <r>   -10.2801    30.5585   199.0500 </r>
       <r>   -10.1803     0.0000   200.0000 </r>
       <r>   -10.0805    56.2508   205.6143 </r>
       <r>    -9.9806     0.0000   206.0000 </r>
       <r>    -9.8808    24.0712   208.4025 </r>
       <r>    -9.7810    39.3797   212.6313 </r>
       <r>    -9.6812    33.1207   217.6559 </r>
       <r>    -9.5814    24.1250   220.2079 </r>
       <r>    -9.4816    30.6436   223.3919 </r>
       <r>    -9.3818    22.0381   226.0000 </r>
       <r>    -9.2820    16.7637   227.6732 </r>
       <r>    -9.1822    37.5838   233.7512 </r>
       <r>    -9.0824    41.1917   238.5115 </r>
       <r>    -8.9826    18.9784   242.6285 </r>
       <r>    -8.8828     0.0000   248.0000 </r>
       <r>    -8.7829     0.0000   248.0000 </r>
       <r>    -8.6831     0.0000   248.0000 </r>
       <r>    -8.5833     0.0000   248.0000 </r>
       <r>    -8.4835     7.9611   248.7946 </r>
       <r>    -8.3837    30.9997   255.0951 </r>
       <r>    -8.2839    22.7553   258.6045 </r>
       <r>    -8.1841    25.0479   262.0000 </r>
       <r>    -8.0843     0.0000   262.0000 </r>
       <r>    -7.9845     0.0000   262.0000 </r>
       <r>    -7.8847     0.0000   262.0000 </r>
       <r>    -7.7849     0.0101   262.0010 </r>
       <r>    -7.6851    74.8761   269.4743 </r>
       <r>    -7.5852    37.0678   274.0000 </r>
       <r>    -7.4854     0.0000   274.0000 </r>
       <r>    -7.3856    59.9526   279.9838 </r>
       <r>    -7.2858     0.0000   280.0000 </r>
       <r>    -7.1860     0.0000   280.0000 </r>
       <r>    -7.0862    60.1050   285.9990 </r>
       <r>    -6.9864     0.0000   286.0000 </r>
       <r>    -6.8866     0.0000   286.0000 </r>
       <r>    -6.7868     0.0000   286.0000 </r>
       <r>    -6.6870    32.9504   289.2887 </r>
       <r>    -6.5872    34.0003   294.0000 </r>
       <r>    -6.4874     0.0000   294.0000 </r>
       <r>    -6.3875     0.0000   294.0000 </r>
       <r>    -6.2877     0.0000   294.0000 </r>
       <r>    -6.1879     0.0000   294.0000 </r>
       <r>    -6.0881     0.0000   294.0000 </r>
       <r>    -5.9883     0.0000   294.0000 </r>
       <r>    -5.8885     0.0000   294.0000 </r>
       <r>    -5.7887     0.0000   294.0000 </r>
       <r>    -5.6889     0.0000   294.0000 </r>
       <r>    -5.5891    59.8789   299.9764 </r>
       <r>    -5.4893     0.0000   300.0000 </r>
       <r>    -5.3895     0.0000   300.0000 </r>
       <r>    -5.2897     0.0000   300.0000 </r>
       <r>    -5.1898    60.1152   306.0000 </r>
       <r>    -5.0900    48.8941   310.8800 </r>
       <r>    -4.9902     0.0000   312.0000 </r>
       <r>    -4.8904     0.0000   312.0000 </r>
       <r>    -4.7906     0.0000   312.0000 </r>
       <r>    -4.6908    98.4325   321.8244 </r>
       <r>    -4.5910     0.0000   324.0000 </r>
       <r>    -4.4912     0.0000   324.0000 </r>
       <r>    -4.3914     0.0000   324.0000 </r>
       <r>    -4.2916     0.0000   324.0000 </r>
       <r>    -4.1918     0.0000   324.0000 </r>
       <r>    -4.0920     0.0000   324.0000 </r>
       <r>    -3.9922     0.0000   324.0000 </r>
       <r>    -3.8923     0.0000   324.0000 </r>
       <r>    -3.7925    60.1152   330.0000 </r>
       <r>    -3.6927     0.0000   330.0000 </r>
       <r>    -3.5929     0.0000   330.0000 </r>
       <r>    -3.4931     0.0000   330.0000 </r>
       <r>    -3.3933     0.0000   330.0000 </r>
       <r>    -3.2935     0.0000   330.0000 </r>
       <r>    -3.1937     0.0000   330.0000 </r>
       <r>    -3.0939     0.0000   330.0000 </r>
       <r>    -2.9941     0.0000   330.0000 </r>
       <r>    -2.8943     0.0000   330.0000 </r>
       <r>    -2.7945     0.0000   330.0000 </r>
       <r>    -2.6946     0.0000   330.0000 </r>
       <r>    -2.5948     0.0000   330.0000 </r>
       <r>    -2.4950    78.2071   337.8057 </r>
       <r>    -2.3952     0.0000   338.0000 </r>
       <r>    -2.2954     0.0000   338.0000 </r>
       <r>    -2.1956     0.0000   338.0000 </r>
       <r>    -2.0958     0.0000   338.0000 </r>
       <r>    -1.9960     0.0000   338.0000 </r>
       <r>    -1.8962     0.0000   338.0000 </r>
       <r>    -1.7964     0.0000   338.0000 </r>
       <r>    -1.6966     0.0000   338.0000 </r>
       <r>    -1.5968     0.0000   338.0000 </r>
       <r>    -1.4969     0.0000   338.0000 </r>
       <r>    -1.3971     0.0000   338.0000 </r>
       <r>    -1.2973    58.8615   343.8749 </r>
       <r>    -1.1975     0.0000   344.0000 </r>
       <r>    -1.0977     0.0000   344.0000 </r>
       <r>    -0.9979     0.0000   344.0000 </r>
       <r>    -0.8981     0.0000   344.0000 </r>
       <r>    -0.7983     0.0000   344.0000 </r>
       <r>    -0.6985    60.1152   350.0000 </r>
       <r>    -0.5987     0.0000   350.0000 </r>
       <r>    -0.4989    39.6304   353.9554 </r>
       <r>    -0.3991     0.0000   354.0000 </r>
       <r>    -0.2992     0.5072   354.0506 </r>
       <r>    -0.1994    85.5320   364.0370 </r>
       <r>    -0.0996    22.7057   368.0000 </r>
       <r>     0.0002     0.0863   368.0086 </r>
       <r>     0.1000    56.4188   373.9478 </r>
       <r>     0.1998    41.5812   379.7835 </r>
       <r>     0.2996    30.1154   383.9560 </r>
       <r>     0.3994     2.8231   384.2818 </r>
       <r>     0.4992    45.3162   389.0230 </r>
       <r>     0.5990   105.4571   400.4592 </r>
       <r>     0.6988    85.7721   410.5615 </r>
       <r>     0.7986    47.6283   416.9377 </r>
       <r>     0.8985    72.1636   426.6201 </r>
       <r>     0.9983    89.9922   437.6325 </r>
       <r>     1.0981    80.7941   447.6644 </r>
       <r>     1.1979     1.5023   448.0000 </r>
       <r>     1.2977     0.0000   448.0000 </r>
       <r>     1.3975     0.0000   448.0000 </r>
       <r>     1.4973     0.0000   448.0000 </r>
       <r>     1.5971     0.0000   448.0000 </r>
       <r>     1.6969     0.0000   448.0000 </r>
       <r>     1.7967     0.0000   448.0000 </r>
       <r>     1.8965     0.0000   448.0000 </r>
       <r>     1.9963     0.0000   448.0000 </r>
       <r>     2.0962     0.0000   448.0000 </r>
       <r>     2.1960     0.0000   448.0000 </r>
       <r>     2.2958     0.0000   448.0000 </r>
       <r>     2.3956     0.0000   448.0000 </r>
       <r>     2.4954     0.0000   448.0000 </r>
      </set>
     </set>
    </array>
   </total>
  </dos>
 </calculation>
 <structure name="finalpos" >
  <crystal>
   <varray name="basis" >
    <v>      28.85378057      -0.02775212       0.00000000 </v>
    <v>     -14.45140141      24.79838860       0.00000000 </v>
    <v>       0.00000000       0.00000000      20.00000000 </v>
   </varray>
   <i name="volume">  14302.52412292 </i>
   <varray name="rec_basis" >
    <v>       0.03467694       0.02020818       0.00000000 </v>
    <v>       0.00003881       0.04034782       0.00000000 </v>
    <v>       0.00000000       0.00000000       0.05000000 </v>
   </varray>
  </crystal>
  <varray name="positions" >
   <v>       0.67890834       0.38762685       0.44250204 </v>
   <v>       0.61546382       0.29359306       0.44184764 </v>
   <v>       0.70890378       0.32421150       0.43980695 </v>
   <v>       0.31723717       0.61191351       0.57054371 </v>
   <v>       0.38639418       0.70416086       0.57101552 </v>
   <v>       0.29483287       0.68114146       0.57011405 </v>
   <v>       0.48913343       0.42989191       0.48799142 </v>
   <v>       0.39400152       0.41702094       0.51847800 </v>
   <v>       0.38896794       0.57792237       0.57479892 </v>
   <v>       0.94208819       0.51343558       0.48405644 </v>
   <v>       0.02567459       0.60778249       0.51802808 </v>
   <v>       0.18907178       0.60927282       0.57366826 </v>
   <v>       0.57116671       0.05950498       0.48324157 </v>
   <v>       0.58255242       0.97676213       0.51765441 </v>
   <v>       0.42091338       0.81054973       0.57291915 </v>
   <v>       0.49946438       0.55930596       0.51844635 </v>
   <v>       0.58976110       0.57285786       0.46690133 </v>
   <v>       0.60166904       0.41312846       0.43504214 </v>
   <v>       0.05912602       0.50058404       0.51354790 </v>
   <v>       0.98169690       0.41191838       0.45834744 </v>
   <v>       0.81175298       0.40226905       0.42799041 </v>
   <v>       0.44146520       0.94052805       0.51400210 </v>
   <v>       0.42941250       0.01812323       0.46210767 </v>
   <v>       0.58946881       0.19029052       0.43057455 </v>
   <v>       0.56393028       0.34280131       0.49574296 </v>
   <v>       0.65936580       0.22181749       0.49123786 </v>
   <v>       0.78141333       0.43975719       0.49203779 </v>
   <v>       0.44087807       0.65798157       0.60829800 </v>
   <v>       0.34135681       0.78303621       0.60598052 </v>
   <v>       0.21590097       0.55635775       0.60582399 </v>
   <v>       0.34873235       0.47231849       0.55808542 </v>
   <v>       0.49556300       0.36242741       0.47057315 </v>
   <v>       0.35648586       0.39419354       0.53697799 </v>
   <v>       0.41879161       0.40161043       0.50917973 </v>
   <v>       0.34821444       0.55643932       0.57162020 </v>
   <v>       0.12571950       0.65112304       0.55938979 </v>
   <v>       0.86901366       0.50822739       0.46680260 </v>
   <v>       0.04094454       0.64503309       0.53806550 </v>
   <v>       0.98539451       0.58350242       0.50784239 </v>
   <v>       0.20910798       0.65030243       0.57196115 </v>
   <v>       0.52630496       0.87573825       0.55805546 </v>
   <v>       0.63881188       0.13357221       0.46551450 </v>
   <v>       0.60490872       0.96180558       0.53652732 </v>
   <v>       0.59831497       0.01705215       0.50670895 </v>
   <v>       0.44199690       0.79089705       0.57137922 </v>
   <v>       0.55261128       0.33059484       0.40913827 </v>
   <v>       0.67154907       0.22410796       0.40450983 </v>
   <v>       0.77800118       0.45132613       0.40600923 </v>
   <v>       0.43307096       0.65120450       0.52081712 </v>
   <v>       0.34817573       0.78103617       0.51861929 </v>
   <v>       0.21753106       0.56550643       0.51851543 </v>
   <v>       0.63767465       0.51806103       0.43815624 </v>
   <v>       0.49537242       0.62682118       0.54357697 </v>
   <v>       0.56768599       0.58806132       0.48839468 </v>
   <v>       0.62996335       0.59551065       0.46068841 </v>
   <v>       0.64235974       0.43678951       0.43569877 </v>
   <v>       0.87900079       0.36515220       0.42912189 </v>
   <v>       0.12974647       0.50314703       0.53847492 </v>
   <v>       0.01884427       0.43322044       0.48071387 </v>
   <v>       0.96330760       0.37162514       0.45072694 </v>
   <v>       0.79414646       0.36133343       0.42829349 </v>
   <v>       0.48491652       0.12160233       0.43355680 </v>
   <v>       0.37357409       0.86887449       0.53890461 </v>
   <v>       0.41388616       0.98047875       0.48341478 </v>
   <v>       0.40724497       0.03604872       0.45552305 </v>
   <v>       0.56629620       0.20772656       0.43202331 </v>
   <v>       0.71766715       0.37456579       0.44100025 </v>
   <v>       0.62873106       0.34581560       0.44292354 </v>
   <v>       0.65687948       0.28505050       0.44073669 </v>
   <v>       0.64536686       0.22780990       0.44189978 </v>
   <v>       0.77469691       0.42055688       0.44198332 </v>
   <v>       0.28174331       0.62941879       0.56999990 </v>
   <v>       0.36875671       0.65077579       0.57087009 </v>
   <v>       0.34797089       0.71705163       0.57016766 </v>
   <v>       0.36391537       0.77553132       0.56685538 </v>
   <v>       0.22343027       0.58677539       0.56693006 </v>
   <v>       0.41707159       0.55327354       0.55370821 </v>
   <v>       0.47634134       0.50543709       0.51123359 </v>
   <v>       0.41975557       0.47169909       0.52604883 </v>
   <v>       0.39158592       0.49712954       0.54704312 </v>
   <v>       0.51726139       0.40648766       0.47056040 </v>
   <v>       0.13642398       0.58198659       0.55180975 </v>
   <v>       0.02951864       0.52463776       0.50732785 </v>
   <v>       0.05346385       0.58116030       0.52441813 </v>
   <v>       0.10688989       0.60834734       0.54646122 </v>
   <v>       0.89055887       0.48601619       0.46590897 </v>
   <v>       0.44612529       0.86351822       0.55130880 </v>
   <v>       0.49516463       0.97111691       0.50746223 </v>
   <v>       0.52808876       0.94787589       0.52400421 </v>
   <v>       0.50208816       0.89405483       0.54566128 </v>
   <v>       0.59498254       0.11141310       0.46568821 </v>
   <v>       0.58319303       0.35701638       0.44600579 </v>
   <v>       0.41119205       0.63518165       0.56870669 </v>
   <v>       0.47231354       0.58296300       0.53879958 </v>
   <v>       0.51074348       0.48390802       0.48927676 </v>
   <v>       0.56634091       0.51805095       0.46989370 </v>
   <v>       0.59555896       0.49294771       0.45264543 </v>
   <v>       0.57191454       0.43672884       0.45285023 </v>
   <v>       0.10984849       0.52684331       0.53476971 </v>
   <v>       0.97357323       0.49119765       0.48422164 </v>
   <v>       0.95115694       0.43577030       0.46270357 </v>
   <v>       0.89682064       0.40723243       0.44490656 </v>
   <v>       0.86519289       0.43146415       0.44636663 </v>
   <v>       0.41723085       0.88948614       0.53487845 </v>
   <v>       0.51734643       0.02733763       0.48476706 </v>
   <v>       0.48394176       0.04937327       0.46513731 </v>
   <v>       0.50947713       0.10409276       0.44792076 </v>
   <v>       0.56544958       0.13646633       0.44815335 </v>
  </varray>
 </structure>
</modeling>
