<?xml version="1.0" encoding="ISO-8859-1"?>
<modeling>
 <generator>
  <i name="program" type="string">vasp </i>
  <i name="version" type="string">5.4.4.18Apr17-6-g9f103f2a35  </i>
  <i name="subversion" type="string">(build Jun 07 2020 16:50:00) complex            parallel </i>
  <i name="platform" type="string">LinuxIFC </i>
  <i name="date" type="string">2023 03 06 </i>
  <i name="time" type="string">14:24:06 </i>
 </generator>
 <incar>
  <i type="string" name="SYSTEM">Simulation for cell shape cell volume r</i>
  <i type="int" name="ISTART">     1</i>
  <i type="string" name="PREC">high</i>
  <i type="string" name="ALGO">48</i>
  <i type="int" name="ICHARG">    11</i>
  <i type="int" name="NELM">   200</i>
  <i type="int" name="IBRION">    -1</i>
  <i name="EDIFF">      0.00001000</i>
  <i name="EDIFFG">     -0.01000000</i>
  <i type="int" name="NSW">     0</i>
  <i type="int" name="ISIF">     2</i>
  <i name="ENCUT">    500.00000000</i>
  <i name="POTIM">      0.30000000</i>
  <i type="string" name="LREAL">A</i>
  <i type="int" name="ISMEAR">     0</i>
  <i name="SIGMA">      0.01000000</i>
  <i type="int" name="NWRITE">     0</i>
  <i type="logical" name="LWAVE"> F  </i>
  <i type="logical" name="LCHARG"> F  </i>
  <v type="int" name="KPOINT_BSE">    -1     0     0     0</v>
  <i type="int" name="NELM">   200</i>
  <i type="string" name="GGA">PE</i>
 </incar>
 <structure name="primitive_cell" >
  <crystal>
   <varray name="basis" >
    <v>      29.62391185       0.02193785       0.00000000 </v>
    <v>     -14.79286622      25.66496512       0.00000000 </v>
    <v>       0.00000000       0.00000000      20.00000000 </v>
   </varray>
   <i name="volume">  15212.42376089 </i>
   <varray name="rec_basis" >
    <v>       0.03374211       0.01944840       0.00000000 </v>
    <v>      -0.00002884       0.03894700       0.00000000 </v>
    <v>       0.00000000       0.00000000       0.05000000 </v>
   </varray>
  </crystal>
  <varray name="positions" >
   <v>       0.36368369      -0.27878778       0.49772181 </v>
   <v>       0.38692861      -0.30983107       0.49750608 </v>
   <v>       0.30903689      -0.30255244       0.49715513 </v>
   <v>       0.39670960      -0.22188971      -0.49984915 </v>
   <v>       0.29135638      -0.27784220       0.49732896 </v>
   <v>       0.42926192      -0.29220942       0.49793782 </v>
   <v>       0.43806297      -0.20589560       0.48630383 </v>
   <v>       0.37899325      -0.19248342      -0.48046580 </v>
   <v>       0.35612064      -0.36446987       0.49783170 </v>
   <v>       0.27805133      -0.35677792       0.49737538 </v>
   <v>       0.30189740      -0.38765556       0.49716939 </v>
   <v>       0.41126375      -0.13827443      -0.48044926 </v>
   <v>       0.22112090      -0.38065780       0.49949874 </v>
   <v>       0.38010719      -0.39745878      -0.49954515 </v>
   <v>       0.27724471      -0.42999250       0.49734858 </v>
   <v>       0.20507235      -0.35521805       0.48608359 </v>
   <v>       0.41643919      -0.13057187       0.41215559 </v>
   <v>       0.42717670      -0.37966841      -0.48002594 </v>
   <v>       0.42831024      -0.10978550       0.45972721 </v>
   <v>       0.35493924      -0.43882935       0.48660666 </v>
   <v>       0.40939860      -0.13207760      -0.37257791 </v>
   <v>       0.42377256      -0.11128346      -0.41964816 </v>
   <v>       0.19177385      -0.42790177      -0.48183529 </v>
   <v>       0.44912883      -0.41203198      -0.48006953 </v>
   <v>       0.45869536      -0.05561600       0.46015384 </v>
   <v>       0.45457076      -0.05733556      -0.42000151 </v>
   <v>       0.13753568      -0.44991731      -0.48179736 </v>
   <v>       0.45187392      -0.41684308       0.41251353 </v>
   <v>       0.45679110      -0.41076602      -0.37216016 </v>
   <v>       0.46068104      -0.42892147       0.46002486 </v>
   <v>       0.47456840      -0.02765954      -0.47880097 </v>
   <v>       0.12977986      -0.45292322       0.41080887 </v>
   <v>       0.46337900      -0.42491050      -0.41933152 </v>
   <v>       0.44895333      -0.04830201       0.35507019 </v>
   <v>       0.13141463      -0.45768898      -0.37388404 </v>
   <v>       0.10900259      -0.46166989       0.45837841 </v>
   <v>       0.47512059      -0.02492634       0.39579533 </v>
   <v>       0.11058758      -0.46425532      -0.42096441 </v>
   <v>       0.46182123      -0.03224768      -0.35379317 </v>
   <v>       0.47700477      -0.04912700      -0.30728364 </v>
   <v>      -0.48527023      -0.01632402       0.38191200 </v>
   <v>       0.48439822      -0.45943781       0.46026553 </v>
   <v>       0.48647812      -0.45583566      -0.41987314 </v>
   <v>      -0.48863283       0.02877375      -0.48131995 </v>
   <v>       0.45064625       0.00268770      -0.34884277 </v>
   <v>       0.43504824       0.01793647       0.41567532 </v>
   <v>       0.05481943      -0.48553427       0.45884236 </v>
   <v>       0.47508795       0.02647303       0.40464730 </v>
   <v>       0.05661853      -0.48749815      -0.42129420 </v>
   <v>      -0.44788424       0.03432673      -0.38874507 </v>
   <v>      -0.49855921      -0.44948162       0.35518465 </v>
   <v>       0.49636554      -0.47557760      -0.47879323 </v>
   <v>      -0.48897548       0.05666226       0.46144638 </v>
   <v>      -0.45109024       0.05546506      -0.43141613 </v>
   <v>       0.02690093      -0.49741567      -0.48010048 </v>
   <v>       0.49871966      -0.47572190       0.39581065 </v>
   <v>       0.04743544       0.49701791       0.35385815 </v>
   <v>      -0.49600924      -0.46359227      -0.35368413 </v>
   <v>       0.47175078      -0.47911620      -0.30741464 </v>
   <v>       0.48736179       0.04959868       0.35842154 </v>
   <v>       0.04872891      -0.47313065      -0.30854663 </v>
   <v>       0.02402289       0.49983433       0.39456283 </v>
   <v>       0.03155027       0.49486731      -0.35505987 </v>
   <v>       0.46782440       0.48468564       0.38183556 </v>
   <v>       0.01509165      -0.46939295       0.38048588 </v>
   <v>      -0.44996134      -0.45250100      -0.34852091 </v>
   <v>      -0.41847005      -0.43565474       0.41574466 </v>
   <v>      -0.48383326       0.48768247      -0.48153345 </v>
   <v>      -0.44984142      -0.47568086       0.40458669 </v>
   <v>      -0.45543778       0.11030704       0.45794118 </v>
   <v>      -0.41641405       0.10851256      -0.43630976 </v>
   <v>      -0.02956866       0.48284517      -0.48260918 </v>
   <v>      -0.00369840       0.44897744      -0.35007863 </v>
   <v>      -0.02714260       0.44834541       0.40379949 </v>
   <v>      -0.03520826      -0.48144487      -0.39053393 </v>
   <v>      -0.01824738       0.41712527       0.41523602 </v>
   <v>       0.48101220       0.44658676      -0.38915653 </v>
   <v>      -0.45548672       0.48826043       0.46122936 </v>
   <v>      -0.41948615       0.13705768      -0.49060306 </v>
   <v>      -0.45563603       0.13173373       0.41359681 </v>
   <v>      -0.38695615       0.12890900      -0.39798979 </v>
   <v>      -0.43892833      -0.48783973       0.35828814 </v>
   <v>      -0.49455184       0.45002128      -0.43180908 </v>
   <v>      -0.05632769       0.49391231      -0.43296434 </v>
   <v>      -0.05743722       0.45422866       0.46041259 </v>
   <v>      -0.05032519       0.43712499       0.35761308 </v>
   <v>      -0.43516897       0.45482898       0.45755478 </v>
   <v>      -0.38478765       0.19066650      -0.49281590 </v>
   <v>      -0.47592199       0.41549750      -0.43684090 </v>
   <v>      -0.10943221       0.47533791      -0.43781186 </v>
   <v>      -0.11113963       0.43391702       0.45697374 </v>
   <v>      -0.44357462       0.20807073       0.48653895 </v>
   <v>      -0.41350508       0.45518409       0.41316532 </v>
   <v>      -0.44421960       0.41879305      -0.49112850 </v>
   <v>      -0.12989113       0.48454544      -0.39969163 </v>
   <v>      -0.40158058       0.22207917       0.49347750 </v>
   <v>      -0.13795345       0.44331627      -0.49178397 </v>
   <v>      -0.48484756       0.38596894      -0.39864670 </v>
   <v>      -0.13254958       0.41198787       0.41281188 </v>
   <v>      -0.42517058       0.38415135      -0.49338891 </v>
   <v>      -0.19160788       0.42426390      -0.49390501 </v>
   <v>      -0.36674340       0.27856566       0.48971005 </v>
   <v>      -0.29612760       0.27434720       0.49023714 </v>
   <v>      -0.34910470       0.44282318       0.48571873 </v>
   <v>      -0.37703901       0.40086113       0.49283604 </v>
   <v>      -0.31223208       0.30042610       0.48929520 </v>
   <v>      -0.20884982       0.34806464       0.48608959 </v>
   <v>      -0.43009658       0.29540140       0.49010383 </v>
   <v>      -0.22293208       0.37604737       0.49281351 </v>
   <v>      -0.38796239       0.31142803       0.48923118 </v>
   <v>      -0.27944541       0.35443214       0.48933877 </v>
   <v>      -0.35538983       0.36592987       0.48931522 </v>
   <v>      -0.27533110       0.42920402       0.48950338 </v>
   <v>      -0.30137737       0.38707388       0.48886942 </v>
  </varray>
 </structure>
 <varray name="primitive_index" >
  <v type="int" >        1 </v>
  <v type="int" >        2 </v>
  <v type="int" >        6 </v>
  <v type="int" >        9 </v>
  <v type="int" >       62 </v>
  <v type="int" >       63 </v>
  <v type="int" >       64 </v>
  <v type="int" >      101 </v>
  <v type="int" >        3 </v>
  <v type="int" >        5 </v>
  <v type="int" >        4 </v>
  <v type="int" >       19 </v>
  <v type="int" >        8 </v>
  <v type="int" >        7 </v>
  <v type="int" >       61 </v>
  <v type="int" >       65 </v>
  <v type="int" >       82 </v>
  <v type="int" >      103 </v>
  <v type="int" >       41 </v>
  <v type="int" >       66 </v>
  <v type="int" >       75 </v>
  <v type="int" >       20 </v>
  <v type="int" >      105 </v>
  <v type="int" >       26 </v>
  <v type="int" >       40 </v>
  <v type="int" >       21 </v>
  <v type="int" >       33 </v>
  <v type="int" >       88 </v>
  <v type="int" >       78 </v>
  <v type="int" >       48 </v>
  <v type="int" >       22 </v>
  <v type="int" >       94 </v>
  <v type="int" >       27 </v>
  <v type="int" >       86 </v>
  <v type="int" >       81 </v>
  <v type="int" >       55 </v>
  <v type="int" >       46 </v>
  <v type="int" >       34 </v>
  <v type="int" >      100 </v>
  <v type="int" >      109 </v>
  <v type="int" >       87 </v>
  <v type="int" >       47 </v>
  <v type="int" >       28 </v>
  <v type="int" >       23 </v>
  <v type="int" >      110 </v>
  <v type="int" >       84 </v>
  <v type="int" >       54 </v>
  <v type="int" >       45 </v>
  <v type="int" >       35 </v>
  <v type="int" >       73 </v>
  <v type="int" >       92 </v>
  <v type="int" >       29 </v>
  <v type="int" >       44 </v>
  <v type="int" >       24 </v>
  <v type="int" >       36 </v>
  <v type="int" >       53 </v>
  <v type="int" >       98 </v>
  <v type="int" >      102 </v>
  <v type="int" >      111 </v>
  <v type="int" >       85 </v>
  <v type="int" >      113 </v>
  <v type="int" >       60 </v>
  <v type="int" >      104 </v>
  <v type="int" >       93 </v>
  <v type="int" >       99 </v>
  <v type="int" >      112 </v>
  <v type="int" >       90 </v>
  <v type="int" >       30 </v>
  <v type="int" >       52 </v>
  <v type="int" >       43 </v>
  <v type="int" >       25 </v>
  <v type="int" >       37 </v>
  <v type="int" >      114 </v>
  <v type="int" >       59 </v>
  <v type="int" >       79 </v>
  <v type="int" >       96 </v>
  <v type="int" >       76 </v>
  <v type="int" >       51 </v>
  <v type="int" >       42 </v>
  <v type="int" >       83 </v>
  <v type="int" >       74 </v>
  <v type="int" >       91 </v>
  <v type="int" >       31 </v>
  <v type="int" >       38 </v>
  <v type="int" >       58 </v>
  <v type="int" >       97 </v>
  <v type="int" >       50 </v>
  <v type="int" >      106 </v>
  <v type="int" >       32 </v>
  <v type="int" >       39 </v>
  <v type="int" >       57 </v>
  <v type="int" >       70 </v>
  <v type="int" >       89 </v>
  <v type="int" >       49 </v>
  <v type="int" >       80 </v>
  <v type="int" >       18 </v>
  <v type="int" >       56 </v>
  <v type="int" >       77 </v>
  <v type="int" >       95 </v>
  <v type="int" >      107 </v>
  <v type="int" >      108 </v>
  <v type="int" >       10 </v>
  <v type="int" >       68 </v>
  <v type="int" >       72 </v>
  <v type="int" >       16 </v>
  <v type="int" >       15 </v>
  <v type="int" >       71 </v>
  <v type="int" >       69 </v>
  <v type="int" >       17 </v>
  <v type="int" >       11 </v>
  <v type="int" >       14 </v>
  <v type="int" >       12 </v>
  <v type="int" >       67 </v>
  <v type="int" >       13 </v>
 </varray>
 <kpoints>
  <generation param="listgenerated">
   <i name="divisions" type="int">      20 </i>
   <v>       0.00000000       0.00000000       0.00000000 </v>
   <v>       0.50000000       0.00000000       0.00000000 </v>
   <v>       0.33333333       0.33333333       0.00000000 </v>
   <v>       0.00000000       0.00000000       0.00000000 </v>
  </generation>
  <varray name="kpointlist" >
   <v>       0.00000000       0.00000000       0.00000000 </v>
   <v>       0.02631579       0.00000000       0.00000000 </v>
   <v>       0.05263158       0.00000000       0.00000000 </v>
   <v>       0.07894737       0.00000000       0.00000000 </v>
   <v>       0.10526316       0.00000000       0.00000000 </v>
   <v>       0.13157895       0.00000000       0.00000000 </v>
   <v>       0.15789474       0.00000000       0.00000000 </v>
   <v>       0.18421053       0.00000000       0.00000000 </v>
   <v>       0.21052632       0.00000000       0.00000000 </v>
   <v>       0.23684211       0.00000000       0.00000000 </v>
   <v>       0.26315789       0.00000000       0.00000000 </v>
   <v>       0.28947368       0.00000000       0.00000000 </v>
   <v>       0.31578947       0.00000000       0.00000000 </v>
   <v>       0.34210526       0.00000000       0.00000000 </v>
   <v>       0.36842105       0.00000000       0.00000000 </v>
   <v>       0.39473684       0.00000000       0.00000000 </v>
   <v>       0.42105263       0.00000000       0.00000000 </v>
   <v>       0.44736842       0.00000000       0.00000000 </v>
   <v>       0.47368421       0.00000000       0.00000000 </v>
   <v>       0.50000000       0.00000000       0.00000000 </v>
   <v>       0.50000000       0.00000000       0.00000000 </v>
   <v>       0.49122807       0.01754386       0.00000000 </v>
   <v>       0.48245614       0.03508772       0.00000000 </v>
   <v>       0.47368421       0.05263158       0.00000000 </v>
   <v>       0.46491228       0.07017544       0.00000000 </v>
   <v>       0.45614035       0.08771930       0.00000000 </v>
   <v>       0.44736842       0.10526316       0.00000000 </v>
   <v>       0.43859649       0.12280702       0.00000000 </v>
   <v>       0.42982456       0.14035088       0.00000000 </v>
   <v>       0.42105263       0.15789474       0.00000000 </v>
   <v>       0.41228070       0.17543860       0.00000000 </v>
   <v>       0.40350877       0.19298246       0.00000000 </v>
   <v>       0.39473684       0.21052632       0.00000000 </v>
   <v>       0.38596491       0.22807018       0.00000000 </v>
   <v>       0.37719298       0.24561404       0.00000000 </v>
   <v>       0.36842105       0.26315789       0.00000000 </v>
   <v>       0.35964912       0.28070175       0.00000000 </v>
   <v>       0.35087719       0.29824561       0.00000000 </v>
   <v>       0.34210526       0.31578947       0.00000000 </v>
   <v>       0.33333333       0.33333333       0.00000000 </v>
   <v>       0.33333333       0.33333333       0.00000000 </v>
   <v>       0.31578947       0.31578947       0.00000000 </v>
   <v>       0.29824561       0.29824561       0.00000000 </v>
   <v>       0.28070175       0.28070175       0.00000000 </v>
   <v>       0.26315789       0.26315789       0.00000000 </v>
   <v>       0.24561404       0.24561404       0.00000000 </v>
   <v>       0.22807018       0.22807018       0.00000000 </v>
   <v>       0.21052632       0.21052632       0.00000000 </v>
   <v>       0.19298246       0.19298246       0.00000000 </v>
   <v>       0.17543860       0.17543860       0.00000000 </v>
   <v>       0.15789474       0.15789474       0.00000000 </v>
   <v>       0.14035088       0.14035088       0.00000000 </v>
   <v>       0.12280702       0.12280702       0.00000000 </v>
   <v>       0.10526316       0.10526316       0.00000000 </v>
   <v>       0.08771930       0.08771930       0.00000000 </v>
   <v>       0.07017544       0.07017544       0.00000000 </v>
   <v>       0.05263158       0.05263158       0.00000000 </v>
   <v>       0.03508772       0.03508772       0.00000000 </v>
   <v>       0.01754386       0.01754386       0.00000000 </v>
   <v>       0.00000000       0.00000000       0.00000000 </v>
  </varray>
  <varray name="weights" >
   <v>       0.01666667 </v>
   <v>       0.01666667 </v>
   <v>       0.01666667 </v>
   <v>       0.01666667 </v>
   <v>       0.01666667 </v>
   <v>       0.01666667 </v>
   <v>       0.01666667 </v>
   <v>       0.01666667 </v>
   <v>       0.01666667 </v>
   <v>       0.01666667 </v>
   <v>       0.01666667 </v>
   <v>       0.01666667 </v>
   <v>       0.01666667 </v>
   <v>       0.01666667 </v>
   <v>       0.01666667 </v>
   <v>       0.01666667 </v>
   <v>       0.01666667 </v>
   <v>       0.01666667 </v>
   <v>       0.01666667 </v>
   <v>       0.01666667 </v>
   <v>       0.01666667 </v>
   <v>       0.01666667 </v>
   <v>       0.01666667 </v>
   <v>       0.01666667 </v>
   <v>       0.01666667 </v>
   <v>       0.01666667 </v>
   <v>       0.01666667 </v>
   <v>       0.01666667 </v>
   <v>       0.01666667 </v>
   <v>       0.01666667 </v>
   <v>       0.01666667 </v>
   <v>       0.01666667 </v>
   <v>       0.01666667 </v>
   <v>       0.01666667 </v>
   <v>       0.01666667 </v>
   <v>       0.01666667 </v>
   <v>       0.01666667 </v>
   <v>       0.01666667 </v>
   <v>       0.01666667 </v>
   <v>       0.01666667 </v>
   <v>       0.01666667 </v>
   <v>       0.01666667 </v>
   <v>       0.01666667 </v>
   <v>       0.01666667 </v>
   <v>       0.01666667 </v>
   <v>       0.01666667 </v>
   <v>       0.01666667 </v>
   <v>       0.01666667 </v>
   <v>       0.01666667 </v>
   <v>       0.01666667 </v>
   <v>       0.01666667 </v>
   <v>       0.01666667 </v>
   <v>       0.01666667 </v>
   <v>       0.01666667 </v>
   <v>       0.01666667 </v>
   <v>       0.01666667 </v>
   <v>       0.01666667 </v>
   <v>       0.01666667 </v>
   <v>       0.01666667 </v>
   <v>       0.01666667 </v>
  </varray>
 </kpoints>
 <parameters>
  <separator name="general" >
   <i type="string" name="SYSTEM">Simulation for cell shape cell volume r</i>
   <i type="logical" name="LCOMPAT"> F  </i>
  </separator>
  <separator name="electronic" >
   <i type="string" name="PREC">high</i>
   <i name="ENMAX">    500.00000000</i>
   <i name="ENAUG">    644.87300000</i>
   <i name="EDIFF">      0.00001000</i>
   <i type="int" name="IALGO">    38</i>
   <i type="int" name="IWAVPR">    10</i>
   <i type="int" name="NBANDS">   240</i>
   <i name="NELECT">    360.00000000</i>
   <i type="int" name="TURBO">     0</i>
   <i type="int" name="IRESTART">     0</i>
   <i type="int" name="NREBOOT">     0</i>
   <i type="int" name="NMIN">     0</i>
   <i name="EREF">      0.00000000</i>
   <separator name="electronic smearing" >
    <i type="int" name="ISMEAR">     0</i>
    <i name="SIGMA">      0.01000000</i>
    <i name="KSPACING">      0.50000000</i>
    <i type="logical" name="KGAMMA"> T  </i>
   </separator>
   <separator name="electronic projectors" >
    <i type="logical" name="LREAL"> T  </i>
    <v name="ROPT">     -0.00040000     -0.00040000     -0.00040000     -0.00040000</v>
    <i type="int" name="LMAXPAW">  -100</i>
    <i type="int" name="LMAXMIX">     2</i>
    <i type="logical" name="NLSPLINE"> F  </i>
   </separator>
   <separator name="electronic startup" >
    <i type="int" name="ISTART">     1</i>
    <i type="int" name="ICHARG">    11</i>
    <i type="int" name="INIWAV">     1</i>
   </separator>
   <separator name="electronic spin" >
    <i type="int" name="ISPIN">     1</i>
    <i type="logical" name="LNONCOLLINEAR"> F  </i>
    <v name="MAGMOM">      1.00000000      1.00000000      1.00000000      1.00000000      1.00000000      1.00000000      1.00000000      1.00000000      1.00000000      1.00000000      1.00000000      1.00000000      1.00000000      1.00000000      1.00000000      1.00000000      1.00000000      1.00000000      1.00000000      1.00000000
      1.00000000      1.00000000      1.00000000      1.00000000      1.00000000      1.00000000      1.00000000      1.00000000      1.00000000      1.00000000      1.00000000      1.00000000      1.00000000      1.00000000      1.00000000      1.00000000      1.00000000      1.00000000      1.00000000      1.00000000
      1.00000000      1.00000000      1.00000000      1.00000000      1.00000000      1.00000000      1.00000000      1.00000000      1.00000000      1.00000000      1.00000000      1.00000000      1.00000000      1.00000000      1.00000000      1.00000000      1.00000000      1.00000000      1.00000000      1.00000000
      1.00000000      1.00000000      1.00000000      1.00000000      1.00000000      1.00000000      1.00000000      1.00000000      1.00000000      1.00000000      1.00000000      1.00000000      1.00000000      1.00000000      1.00000000      1.00000000      1.00000000      1.00000000      1.00000000      1.00000000
      1.00000000      1.00000000      1.00000000      1.00000000      1.00000000      1.00000000      1.00000000      1.00000000      1.00000000      1.00000000      1.00000000      1.00000000      1.00000000      1.00000000      1.00000000      1.00000000      1.00000000      1.00000000      1.00000000      1.00000000
      1.00000000      1.00000000      1.00000000      1.00000000      1.00000000      1.00000000      1.00000000      1.00000000      1.00000000      1.00000000      1.00000000      1.00000000      1.00000000      1.00000000</v>
    <i name="NUPDOWN">     -1.00000000</i>
    <i type="logical" name="LSORBIT"> F  </i>
    <v name="SAXIS">      0.00000000      0.00000000      1.00000000</v>
    <i type="logical" name="LSPIRAL"> F  </i>
    <v name="QSPIRAL">      0.00000000      0.00000000      0.00000000</v>
    <i type="logical" name="LZEROZ"> F  </i>
   </separator>
   <separator name="electronic exchange-correlation" >
    <i type="logical" name="LASPH"> F  </i>
    <i type="logical" name="LMETAGGA"> F  </i>
   </separator>
   <separator name="electronic convergence" >
    <i type="int" name="NELM">   200</i>
    <i type="int" name="NELMDL">     0</i>
    <i type="int" name="NELMIN">     2</i>
    <i name="ENINI">    500.00000000</i>
    <separator name="electronic convergence detail" >
     <i type="logical" name="LDIAG"> T  </i>
     <i type="logical" name="LSUBROT"> F  </i>
     <i name="WEIMIN">      0.00000000</i>
     <i name="EBREAK">      0.00000001</i>
     <i name="DEPER">      0.30000000</i>
     <i type="int" name="NRMM">     4</i>
     <i name="TIME">      0.40000000</i>
    </separator>
   </separator>
   <separator name="electronic mixer" >
    <i name="AMIX">      0.40000000</i>
    <i name="BMIX">      1.00000000</i>
    <i name="AMIN">      0.10000000</i>
    <i name="AMIX_MAG">      1.60000000</i>
    <i name="BMIX_MAG">      1.00000000</i>
    <separator name="electronic mixer details" >
     <i type="int" name="IMIX">     4</i>
     <i type="logical" name="MIXFIRST"> F  </i>
     <i type="int" name="MAXMIX">   -45</i>
     <i name="WC">    100.00000000</i>
     <i type="int" name="INIMIX">     1</i>
     <i type="int" name="MIXPRE">     1</i>
     <i type="int" name="MREMOVE">     5</i>
    </separator>
   </separator>
   <separator name="electronic dipolcorrection" >
    <i type="logical" name="LDIPOL"> F  </i>
    <i type="logical" name="LMONO"> F  </i>
    <i type="int" name="IDIPOL">     0</i>
    <i name="EPSILON">      1.00000000</i>
    <v name="DIPOL">   -100.00000000   -100.00000000   -100.00000000</v>
    <i name="EFIELD">      0.00000000</i>
   </separator>
  </separator>
  <separator name="grids" >
   <i type="int" name="NGX">   216</i>
   <i type="int" name="NGY">   216</i>
   <i type="int" name="NGZ">   150</i>
   <i type="int" name="NGXF">   336</i>
   <i type="int" name="NGYF">   336</i>
   <i type="int" name="NGZF">   224</i>
   <i type="logical" name="ADDGRID"> F  </i>
  </separator>
  <separator name="ionic" >
   <i type="int" name="NSW">     0</i>
   <i type="int" name="IBRION">    -1</i>
   <i type="int" name="MDALGO">     0</i>
   <i type="int" name="ISIF">     2</i>
   <i name="PSTRESS">      0.00000000</i>
   <i name="EDIFFG">     -0.01000000</i>
   <i type="int" name="NFREE">     0</i>
   <i name="POTIM">      0.30000000</i>
   <i name="SMASS">     -3.00000000</i>
   <i name="SCALEE">      1.00000000</i>
  </separator>
  <separator name="ionic md" >
   <i name="TEBEG">      0.00010000</i>
   <i name="TEEND">      0.00010000</i>
   <i type="int" name="NBLOCK">     1</i>
   <i type="int" name="KBLOCK">     1</i>
   <i type="int" name="NPACO">   256</i>
   <i name="APACO">     16.00000000</i>
  </separator>
  <separator name="symmetry" >
   <i type="int" name="ISYM">     2</i>
   <i name="SYMPREC">      0.00001000</i>
  </separator>
  <separator name="dos" >
   <i type="int" name="LORBIT">     0</i>
   <v name="RWIGS">     -1.00000000     -1.00000000     -1.00000000     -1.00000000</v>
   <i type="int" name="NEDOS">   301</i>
   <i name="EMIN">     10.00000000</i>
   <i name="EMAX">    -10.00000000</i>
   <i name="EFERMI">      0.00000000</i>
  </separator>
  <separator name="writing" >
   <i type="int" name="NWRITE">     0</i>
   <i type="logical" name="LWAVE"> F  </i>
   <i type="logical" name="LDOWNSAMPLE"> F  </i>
   <i type="logical" name="LCHARG"> F  </i>
   <i type="logical" name="LPARD"> F  </i>
   <i type="logical" name="LVTOT"> F  </i>
   <i type="logical" name="LVHAR"> F  </i>
   <i type="logical" name="LELF"> F  </i>
   <i type="logical" name="LOPTICS"> F  </i>
   <v name="STM">      0.00000000      0.00000000      0.00000000      0.00000000      0.00000000      0.00000000      0.00000000</v>
  </separator>
  <separator name="performance" >
   <i type="int" name="NPAR">    16</i>
   <i type="int" name="NSIM">     4</i>
   <i type="int" name="NBLK">    -1</i>
   <i type="logical" name="LPLANE"> T  </i>
   <i type="logical" name="LSCALAPACK"> T  </i>
   <i type="logical" name="LSCAAWARE"> F  </i>
   <i type="logical" name="LSCALU"> F  </i>
   <i type="logical" name="LASYNC"> F  </i>
   <i type="logical" name="LORBITALREAL"> F  </i>
  </separator>
  <separator name="miscellaneous" >
   <i type="int" name="IDIOT">     3</i>
   <i type="int" name="ISPECIAL">     0</i>
   <i type="logical" name="LMUSIC"> F  </i>
   <v name="POMASS">     12.01100000      1.00000000     14.00100000     16.00000000</v>
   <v name="DARWINR">      0.00000000      0.00000000      0.00000000      0.00000000</v>
   <v name="DARWINV">      1.00000000      1.00000000      1.00000000      1.00000000</v>
   <i type="logical" name="LCORR"> T  </i>
  </separator>
  <i type="logical" name="GGA_COMPAT"> T  </i>
  <i type="logical" name="LBERRY"> F  </i>
  <i type="int" name="ICORELEVEL">     0</i>
  <i type="logical" name="LDAU"> F  </i>
  <i type="int" name="I_CONSTRAINED_M">     0</i>
  <separator name="electronic exchange-correlation" >
   <i type="string" name="GGA">PE</i>
   <i type="int" name="VOSKOWN">     0</i>
   <i type="logical" name="LHFCALC"> F  </i>
   <i type="string" name="PRECFOCK"></i>
   <i type="logical" name="LSYMGRAD"> F  </i>
   <i type="logical" name="LHFONE"> F  </i>
   <i type="logical" name="LRHFCALC"> F  </i>
   <i type="logical" name="LTHOMAS"> F  </i>
   <i type="logical" name="LMODELHF"> F  </i>
   <i name="ENCUT4O">     -1.00000000</i>
   <i type="int" name="EXXOEP">     0</i>
   <i type="int" name="FOURORBIT">     0</i>
   <i name="AEXX">      0.00000000</i>
   <i name="HFALPHA">      0.00000000</i>
   <i name="MCALPHA">      0.00000000</i>
   <i name="ALDAX">      1.00000000</i>
   <i name="AGGAX">      1.00000000</i>
   <i name="ALDAC">      1.00000000</i>
   <i name="AGGAC">      1.00000000</i>
   <i type="int" name="NKREDX">     1</i>
   <i type="int" name="NKREDY">     1</i>
   <i type="int" name="NKREDZ">     1</i>
   <i type="logical" name="SHIFTRED"> F  </i>
   <i type="logical" name="ODDONLY"> F  </i>
   <i type="logical" name="EVENONLY"> F  </i>
   <i type="int" name="LMAXFOCK">     0</i>
   <i type="int" name="NMAXFOCKAE">     0</i>
   <i type="logical" name="LFOCKAEDFT"> F  </i>
   <i name="HFSCREEN">      0.00000000</i>
   <i name="HFSCREENC">      0.00000000</i>
   <i type="int" name="NBANDSGWLOW">     0</i>
  </separator>
  <separator name="vdW DFT" >
   <i type="logical" name="LUSE_VDW"> F  </i>
   <i name="Zab_VDW">     -0.84910000</i>
   <i name="PARAM1">      0.12340000</i>
   <i name="PARAM2">      1.00000000</i>
   <i name="PARAM3">      0.00000000</i>
  </separator>
  <separator name="model GW" >
   <i type="int" name="MODEL_GW">     0</i>
   <i name="MODEL_EPS0">     80.06538822</i>
   <i name="MODEL_ALPHA">      1.00000000</i>
  </separator>
  <separator name="linear response parameters" >
   <i type="logical" name="LEPSILON"> F  </i>
   <i type="logical" name="LRPA"> F  </i>
   <i type="logical" name="LNABLA"> F  </i>
   <i type="logical" name="LVEL"> F  </i>
   <i type="int" name="KINTER">     0</i>
   <i name="CSHIFT">      0.10000000</i>
   <i name="OMEGAMAX">     -1.00000000</i>
   <i name="DEG_THRESHOLD">      0.00200000</i>
   <i name="RTIME">     -0.10000000</i>
   <i name="WPLASMAI">      0.00000000</i>
   <v name="DFIELD">      0.00000000      0.00000000      0.00000000</v>
   <v name="WPLASMA">      0.00000000      0.00000000      0.00000000      0.00000000      0.00000000      0.00000000      0.00000000      0.00000000      0.00000000</v>
  </separator>
  <separator name="orbital magnetization" >
   <i type="logical" name="NUCIND"> F  </i>
   <v name="MAGPOS">      0.00000000      0.00000000      0.00000000</v>
   <i type="logical" name="LNICSALL"> T  </i>
   <i type="logical" name="ORBITALMAG"> F  </i>
   <i type="logical" name="LMAGBLOCH"> F  </i>
   <i type="logical" name="LCHIMAG"> F  </i>
   <i type="logical" name="LGAUGE"> T  </i>
   <i type="int" name="MAGATOM">     0</i>
   <v name="MAGDIPOL">      0.00000000      0.00000000      0.00000000</v>
   <v name="AVECCONST">      0.00000000      0.00000000      0.00000000</v>
  </separator>
  <separator name="response functions" >
   <i type="logical" name="LADDER"> F  </i>
   <i type="logical" name="LRPAFORCE"> F  </i>
   <i type="logical" name="LFXC"> F  </i>
   <i type="logical" name="LHARTREE"> T  </i>
   <i type="int" name="IBSE">     0</i>
   <v type="int" name="KPOINT">    -1     0     0     0</v>
   <i type="logical" name="LTCTE"> F  </i>
   <i type="logical" name="LTETE"> F  </i>
   <i type="logical" name="LTRIPLET"> F  </i>
   <i type="logical" name="LFXCEPS"> F  </i>
   <i type="logical" name="LFXHEG"> F  </i>
   <i type="int" name="NATURALO">     2</i>
   <i type="logical" name="L2ORDER"> F  </i>
   <i type="logical" name="LMP2LT"> F  </i>
   <i type="logical" name="LUSEW"> F  </i>
   <i name="ENCUTGW">     -2.00000000</i>
   <i name="ENCUTGWSOFT">     -2.00000000</i>
   <i name="ENCUTLF">     -1.00000000</i>
   <i type="int" name="LMAXMP2">    -1</i>
   <i name="SCISSOR">      0.00000000</i>
   <i type="int" name="NOMEGA">     0</i>
   <i type="int" name="NOMEGAR">     0</i>
   <i type="int" name="NBANDSGW">    -1</i>
   <i type="int" name="NBANDSO">    -1</i>
   <i type="int" name="NBANDSV">    -1</i>
   <i type="int" name="NELM">   200</i>
   <i type="int" name="NELMHF">     1</i>
   <i type="int" name="DIM">     3</i>
   <i type="int" name="ANTIRES">     0</i>
   <i name="OMEGAMAX">    -30.00000000</i>
   <i name="OMEGAMIN">    -30.00000000</i>
   <i name="OMEGATL">   -200.00000000</i>
   <i type="int" name="OMEGAGRID">   140</i>
   <i name="CSHIFT">     -0.10000000</i>
   <i type="logical" name="SELFENERGY"> F  </i>
   <i type="logical" name="LSPECTRAL"> F  </i>
   <i type="logical" name="LSPECTRALGW"> F  </i>
   <i type="logical" name="LSINGLES"> F  </i>
   <i type="logical" name="LFERMIGW"> F  </i>
   <i type="logical" name="ODDONLYGW"> F  </i>
   <i type="logical" name="EVENONLYGW"> F  </i>
   <i type="int" name="NKREDLFX">     1</i>
   <i type="int" name="NKREDLFY">     1</i>
   <i type="int" name="NKREDLFZ">     1</i>
   <i type="int" name="MAXMEM">  2800</i>
   <i type="int" name="TELESCOPE">     0</i>
   <i type="int" name="TAUPAR">     1</i>
   <i type="int" name="OMEGAPAR">    -1</i>
   <i name="LAMBDA">      1.00000000</i>
  </separator>
  <separator name="External order field" >
   <i name="OFIELD_KAPPA">      0.00000000</i>
   <v name="OFIELD_K">      0.00000000      0.00000000      0.00000000</v>
   <i name="OFIELD_Q6_NEAR">      0.00000000</i>
   <i name="OFIELD_Q6_FAR">      0.00000000</i>
   <i name="OFIELD_A">      0.00000000</i>
  </separator>
  <separator name="solvation model" >
   <i type="logical" name="LSOL"> F  </i>
  </separator>
 </parameters>
 <atominfo>
  <atoms>     114 </atoms>
  <types>       4 </types>
  <array name="atoms" >
   <dimension dim="1">ion</dimension>
   <field type="string">element</field>
   <field type="int">atomtype</field>
   <set>
    <rc><c>C </c><c>   1</c></rc>
    <rc><c>C </c><c>   1</c></rc>
    <rc><c>C </c><c>   1</c></rc>
    <rc><c>C </c><c>   1</c></rc>
    <rc><c>C </c><c>   1</c></rc>
    <rc><c>C </c><c>   1</c></rc>
    <rc><c>C </c><c>   1</c></rc>
    <rc><c>C </c><c>   1</c></rc>
    <rc><c>C </c><c>   1</c></rc>
    <rc><c>C </c><c>   1</c></rc>
    <rc><c>C </c><c>   1</c></rc>
    <rc><c>C </c><c>   1</c></rc>
    <rc><c>C </c><c>   1</c></rc>
    <rc><c>C </c><c>   1</c></rc>
    <rc><c>C </c><c>   1</c></rc>
    <rc><c>C </c><c>   1</c></rc>
    <rc><c>C </c><c>   1</c></rc>
    <rc><c>C </c><c>   1</c></rc>
    <rc><c>C </c><c>   1</c></rc>
    <rc><c>C </c><c>   1</c></rc>
    <rc><c>C </c><c>   1</c></rc>
    <rc><c>C </c><c>   1</c></rc>
    <rc><c>C </c><c>   1</c></rc>
    <rc><c>C </c><c>   1</c></rc>
    <rc><c>C </c><c>   1</c></rc>
    <rc><c>C </c><c>   1</c></rc>
    <rc><c>C </c><c>   1</c></rc>
    <rc><c>C </c><c>   1</c></rc>
    <rc><c>C </c><c>   1</c></rc>
    <rc><c>C </c><c>   1</c></rc>
    <rc><c>C </c><c>   1</c></rc>
    <rc><c>C </c><c>   1</c></rc>
    <rc><c>C </c><c>   1</c></rc>
    <rc><c>C </c><c>   1</c></rc>
    <rc><c>C </c><c>   1</c></rc>
    <rc><c>C </c><c>   1</c></rc>
    <rc><c>C </c><c>   1</c></rc>
    <rc><c>C </c><c>   1</c></rc>
    <rc><c>C </c><c>   1</c></rc>
    <rc><c>C </c><c>   1</c></rc>
    <rc><c>C </c><c>   1</c></rc>
    <rc><c>C </c><c>   1</c></rc>
    <rc><c>C </c><c>   1</c></rc>
    <rc><c>C </c><c>   1</c></rc>
    <rc><c>C </c><c>   1</c></rc>
    <rc><c>C </c><c>   1</c></rc>
    <rc><c>C </c><c>   1</c></rc>
    <rc><c>C </c><c>   1</c></rc>
    <rc><c>C </c><c>   1</c></rc>
    <rc><c>C </c><c>   1</c></rc>
    <rc><c>C </c><c>   1</c></rc>
    <rc><c>C </c><c>   1</c></rc>
    <rc><c>C </c><c>   1</c></rc>
    <rc><c>C </c><c>   1</c></rc>
    <rc><c>C </c><c>   1</c></rc>
    <rc><c>C </c><c>   1</c></rc>
    <rc><c>C </c><c>   1</c></rc>
    <rc><c>C </c><c>   1</c></rc>
    <rc><c>C </c><c>   1</c></rc>
    <rc><c>C </c><c>   1</c></rc>
    <rc><c>H </c><c>   2</c></rc>
    <rc><c>H </c><c>   2</c></rc>
    <rc><c>H </c><c>   2</c></rc>
    <rc><c>H </c><c>   2</c></rc>
    <rc><c>H </c><c>   2</c></rc>
    <rc><c>H </c><c>   2</c></rc>
    <rc><c>H </c><c>   2</c></rc>
    <rc><c>H </c><c>   2</c></rc>
    <rc><c>H </c><c>   2</c></rc>
    <rc><c>H </c><c>   2</c></rc>
    <rc><c>H </c><c>   2</c></rc>
    <rc><c>H </c><c>   2</c></rc>
    <rc><c>H </c><c>   2</c></rc>
    <rc><c>H </c><c>   2</c></rc>
    <rc><c>H </c><c>   2</c></rc>
    <rc><c>H </c><c>   2</c></rc>
    <rc><c>H </c><c>   2</c></rc>
    <rc><c>H </c><c>   2</c></rc>
    <rc><c>H </c><c>   2</c></rc>
    <rc><c>H </c><c>   2</c></rc>
    <rc><c>H </c><c>   2</c></rc>
    <rc><c>H </c><c>   2</c></rc>
    <rc><c>H </c><c>   2</c></rc>
    <rc><c>H </c><c>   2</c></rc>
    <rc><c>H </c><c>   2</c></rc>
    <rc><c>H </c><c>   2</c></rc>
    <rc><c>H </c><c>   2</c></rc>
    <rc><c>H </c><c>   2</c></rc>
    <rc><c>H </c><c>   2</c></rc>
    <rc><c>H </c><c>   2</c></rc>
    <rc><c>H </c><c>   2</c></rc>
    <rc><c>H </c><c>   2</c></rc>
    <rc><c>H </c><c>   2</c></rc>
    <rc><c>H </c><c>   2</c></rc>
    <rc><c>H </c><c>   2</c></rc>
    <rc><c>H </c><c>   2</c></rc>
    <rc><c>H </c><c>   2</c></rc>
    <rc><c>H </c><c>   2</c></rc>
    <rc><c>H </c><c>   2</c></rc>
    <rc><c>N </c><c>   3</c></rc>
    <rc><c>N </c><c>   3</c></rc>
    <rc><c>N </c><c>   3</c></rc>
    <rc><c>N </c><c>   3</c></rc>
    <rc><c>N </c><c>   3</c></rc>
    <rc><c>N </c><c>   3</c></rc>
    <rc><c>N </c><c>   3</c></rc>
    <rc><c>N </c><c>   3</c></rc>
    <rc><c>N </c><c>   3</c></rc>
    <rc><c>O </c><c>   4</c></rc>
    <rc><c>O </c><c>   4</c></rc>
    <rc><c>O </c><c>   4</c></rc>
    <rc><c>O </c><c>   4</c></rc>
    <rc><c>O </c><c>   4</c></rc>
    <rc><c>O </c><c>   4</c></rc>
   </set>
  </array>
  <array name="atomtypes" >
   <dimension dim="1">type</dimension>
   <field type="int">atomspertype</field>
   <field type="string">element</field>
   <field>mass</field>
   <field>valence</field>
   <field type="string">pseudopotential</field>
   <set>
    <rc><c>  60</c><c>C </c><c>     12.01100000</c><c>      4.00000000</c><c>  PAW_PBE C 08Apr2002                   </c></rc>
    <rc><c>  39</c><c>H </c><c>      1.00000000</c><c>      1.00000000</c><c>  PAW_PBE H 15Jun2001                   </c></rc>
    <rc><c>   9</c><c>N </c><c>     14.00100000</c><c>      5.00000000</c><c>  PAW_PBE N 08Apr2002                   </c></rc>
    <rc><c>   6</c><c>O </c><c>     16.00000000</c><c>      6.00000000</c><c>  PAW_PBE O 08Apr2002                   </c></rc>
   </set>
  </array>
 </atominfo>
 <structure name="initialpos" >
  <crystal>
   <varray name="basis" >
    <v>      29.62391185       0.02193785       0.00000000 </v>
    <v>     -14.79286622      25.66496512       0.00000000 </v>
    <v>       0.00000000       0.00000000      20.00000000 </v>
   </varray>
   <i name="volume">  15212.42376089 </i>
   <varray name="rec_basis" >
    <v>       0.03374211       0.01944840       0.00000000 </v>
    <v>      -0.00002884       0.03894700       0.00000000 </v>
    <v>       0.00000000       0.00000000       0.05000000 </v>
   </varray>
  </crystal>
  <varray name="positions" >
   <v>       0.36368369       0.72121222       0.49772181 </v>
   <v>       0.38692861       0.69016893       0.49750608 </v>
   <v>       0.35612064       0.63553013       0.49783170 </v>
   <v>       0.30189740       0.61234444       0.49716939 </v>
   <v>       0.27805133       0.64322208       0.49737538 </v>
   <v>       0.30903689       0.69744756       0.49715513 </v>
   <v>       0.38010719       0.60254122       0.50045485 </v>
   <v>       0.22112090       0.61934220       0.49949874 </v>
   <v>       0.39670960       0.77811029       0.50015085 </v>
   <v>       0.63325660       0.27856566       0.48971005 </v>
   <v>       0.61203761       0.31142803       0.48923118 </v>
   <v>       0.64461017       0.36592987       0.48931522 </v>
   <v>       0.69862263       0.38707388       0.48886942 </v>
   <v>       0.72055459       0.35443214       0.48933877 </v>
   <v>       0.68776792       0.30042610       0.48929520 </v>
   <v>       0.62296099       0.40086113       0.49283604 </v>
   <v>       0.77706792       0.37604737       0.49281351 </v>
   <v>       0.59841942       0.22207917       0.49347750 </v>
   <v>       0.41126375       0.86172557       0.51955074 </v>
   <v>       0.42377256       0.88871654       0.58035184 </v>
   <v>       0.45457076       0.94266444       0.57999849 </v>
   <v>       0.47456840       0.97234046       0.52119903 </v>
   <v>       0.51136717       0.02877375       0.51868005 </v>
   <v>       0.54890976       0.05546506       0.56858387 </v>
   <v>       0.58358595       0.10851256       0.56369024 </v>
   <v>       0.44912883       0.58796802       0.51993047 </v>
   <v>       0.46337900       0.57508950       0.58066848 </v>
   <v>       0.48647812       0.54416434       0.58012686 </v>
   <v>       0.49636554       0.52442240       0.52120677 </v>
   <v>       0.51616674       0.48768247       0.51846655 </v>
   <v>       0.50544816       0.45002128       0.56819092 </v>
   <v>       0.52407801       0.41549750       0.56315910 </v>
   <v>       0.13753568       0.55008269       0.51820264 </v>
   <v>       0.11058758       0.53574468       0.57903559 </v>
   <v>       0.05661853       0.51250185       0.57870580 </v>
   <v>       0.02690093       0.50258433       0.51989952 </v>
   <v>       0.97043134       0.48284517       0.51739082 </v>
   <v>       0.94367231       0.49391231       0.56703566 </v>
   <v>       0.89056779       0.47533791       0.56218814 </v>
   <v>       0.45869536       0.94438400       0.46015384 </v>
   <v>       0.42831024       0.89021450       0.45972721 </v>
   <v>       0.58051385       0.13705768       0.50939694 </v>
   <v>       0.54456222       0.11030704       0.45794118 </v>
   <v>       0.51102452       0.05666226       0.46144638 </v>
   <v>       0.47508795       0.02647303       0.40464730 </v>
   <v>       0.47512059       0.97507366       0.39579533 </v>
   <v>       0.48439822       0.54056219       0.46026553 </v>
   <v>       0.46068104       0.57107853       0.46002486 </v>
   <v>       0.55578040       0.41879305       0.50887150 </v>
   <v>       0.56483103       0.45482898       0.45755478 </v>
   <v>       0.54451328       0.48826043       0.46122936 </v>
   <v>       0.55015858       0.52431914       0.40458669 </v>
   <v>       0.49871966       0.52427810       0.39581065 </v>
   <v>       0.05481943       0.51446573       0.45884236 </v>
   <v>       0.10900259       0.53833011       0.45837841 </v>
   <v>       0.86204655       0.44331627       0.50821603 </v>
   <v>       0.88886037       0.43391702       0.45697374 </v>
   <v>       0.94256278       0.45422866       0.46041259 </v>
   <v>       0.97285740       0.44834541       0.40379949 </v>
   <v>       0.02402289       0.49983433       0.39456283 </v>
   <v>       0.27724471       0.57000750       0.49734858 </v>
   <v>       0.29135638       0.72215780       0.49732896 </v>
   <v>       0.42926192       0.70779058       0.49793782 </v>
   <v>       0.43806297       0.79410440       0.48630383 </v>
   <v>       0.20507235       0.64478195       0.48608359 </v>
   <v>       0.35493924       0.56117065       0.48660666 </v>
   <v>       0.72466890       0.42920402       0.48950338 </v>
   <v>       0.70387240       0.27434720       0.49023714 </v>
   <v>       0.56990342       0.29540140       0.49010383 </v>
   <v>       0.55642538       0.20807073       0.48653895 </v>
   <v>       0.79115018       0.34806464       0.48608959 </v>
   <v>       0.65089530       0.44282318       0.48571873 </v>
   <v>       0.55211576       0.03432673       0.61125493 </v>
   <v>       0.61304385       0.12890900       0.60201021 </v>
   <v>       0.40939860       0.86792240       0.62742209 </v>
   <v>       0.48101220       0.44658676       0.61084347 </v>
   <v>       0.51515244       0.38596894       0.60135330 </v>
   <v>       0.45679110       0.58923398       0.62783984 </v>
   <v>       0.96479174       0.51855513       0.60946607 </v>
   <v>       0.87010887       0.48454544       0.60030837 </v>
   <v>       0.13141463       0.54231102       0.62611596 </v>
   <v>       0.41643919       0.86942813       0.41215559 </v>
   <v>       0.54436397       0.13173373       0.41359681 </v>
   <v>       0.43504824       0.01793647       0.41567532 </v>
   <v>       0.48736179       0.04959868       0.35842154 </v>
   <v>       0.44895333       0.95169799       0.35507019 </v>
   <v>       0.51472977       0.98367598       0.38191200 </v>
   <v>       0.45187392       0.58315692       0.41251353 </v>
   <v>       0.58649492       0.45518409       0.41316532 </v>
   <v>       0.58152995       0.56434526       0.41574466 </v>
   <v>       0.56107167       0.51216027       0.35828814 </v>
   <v>       0.50144079       0.55051838       0.35518465 </v>
   <v>       0.46782440       0.48468564       0.38183556 </v>
   <v>       0.12977986       0.54707678       0.41080887 </v>
   <v>       0.86745042       0.41198787       0.41281188 </v>
   <v>       0.98175262       0.41712527       0.41523602 </v>
   <v>       0.94967481       0.43712499       0.35761308 </v>
   <v>       0.04743544       0.49701791       0.35385815 </v>
   <v>       0.01509165       0.53060705       0.38048588 </v>
   <v>       0.46182123       0.96775232       0.64620683 </v>
   <v>       0.37899325       0.80751658       0.51953420 </v>
   <v>       0.50399076       0.53640773       0.64631587 </v>
   <v>       0.42717670       0.62033159       0.51997406 </v>
   <v>       0.03155027       0.49486731       0.64494013 </v>
   <v>       0.19177385       0.57209823       0.51816471 </v>
   <v>       0.61521235       0.19066650       0.50718410 </v>
   <v>       0.57482942       0.38415135       0.50661109 </v>
   <v>       0.80839212       0.42426390       0.50609499 </v>
   <v>       0.47700477       0.95087300       0.69271636 </v>
   <v>       0.45064625       0.00268770       0.65115723 </v>
   <v>       0.47175078       0.52088380       0.69258536 </v>
   <v>       0.55003866       0.54749900       0.65147909 </v>
   <v>       0.04872891       0.52686935       0.69145337 </v>
   <v>       0.99630160       0.44897744       0.64992137 </v>
  </varray>
 </structure>
 <calculation>
  <scstep>
   <time name="dav">  317.23  320.31</time>
   <time name="total">  317.52  320.60</time>
   <energy>
    <i name="alphaZ">     39.28624831 </i>
    <i name="ewald">  42811.42461438 </i>
    <i name="hartreedc"> -54496.04822904 </i>
    <i name="XCdc">   1280.80077905 </i>
    <i name="pawpsdc">  32703.16897562 </i>
    <i name="pawaedc"> -32769.01755669 </i>
    <i name="eentropy">     -0.00000000 </i>
    <i name="bandstr">  -4648.24579160 </i>
    <i name="atom">  14290.82831829 </i>
    <i name="e_fr_energy">   -787.80264168 </i>
    <i name="e_wo_entrp">   -787.80264168 </i>
    <i name="e_0_energy">   -787.80264168 </i>
   </energy>
  </scstep>
  <scstep>
   <time name="dav">  353.48  356.90</time>
   <time name="total">  353.49  356.92</time>
   <energy>
    <i name="e_fr_energy">   -788.26424046 </i>
    <i name="e_wo_entrp">   -788.26424046 </i>
    <i name="e_0_energy">   -788.26424046 </i>
   </energy>
  </scstep>
  <scstep>
   <time name="dav">  403.24  407.16</time>
   <time name="total">  403.25  407.17</time>
   <energy>
    <i name="e_fr_energy">   -788.27904973 </i>
    <i name="e_wo_entrp">   -788.27904973 </i>
    <i name="e_0_energy">   -788.27904973 </i>
   </energy>
  </scstep>
  <scstep>
   <time name="dav">  351.60  355.06</time>
   <time name="total">  351.61  355.07</time>
   <energy>
    <i name="e_fr_energy">   -788.27927050 </i>
    <i name="e_wo_entrp">   -788.27927050 </i>
    <i name="e_0_energy">   -788.27927050 </i>
   </energy>
  </scstep>
  <scstep>
   <time name="dav">  334.11  337.33</time>
   <time name="total">  334.12  337.35</time>
   <energy>
    <i name="e_fr_energy">   -788.27928051 </i>
    <i name="e_wo_entrp">   -788.27928051 </i>
    <i name="e_0_energy">   -788.27928051 </i>
   </energy>
  </scstep>
  <scstep>
   <time name="dav">  266.53  269.04</time>
   <time name="total">  266.56  269.07</time>
   <energy>
    <i name="alphaZ">     39.28624831 </i>
    <i name="ewald">  42811.42461438 </i>
    <i name="hartreedc"> -54496.04822904 </i>
    <i name="XCdc">   1280.80077905 </i>
    <i name="pawpsdc">  32703.16897562 </i>
    <i name="pawaedc"> -32769.01755669 </i>
    <i name="eentropy">     -0.00000000 </i>
    <i name="bandstr">  -4648.72243080 </i>
    <i name="atom">  14290.82831829 </i>
    <i name="e_fr_energy">   -788.27928087 </i>
    <i name="e_wo_entrp">   -788.27928087 </i>
    <i name="e_0_energy">   -788.27928087 </i>
   </energy>
  </scstep>
  <structure>
   <crystal>
    <varray name="basis" >
     <v>      29.62391185       0.02193785       0.00000000 </v>
     <v>     -14.79286622      25.66496512       0.00000000 </v>
     <v>       0.00000000       0.00000000      20.00000000 </v>
    </varray>
    <i name="volume">  15212.42376089 </i>
    <varray name="rec_basis" >
     <v>       0.03374211       0.01944840       0.00000000 </v>
     <v>      -0.00002884       0.03894700       0.00000000 </v>
     <v>       0.00000000       0.00000000       0.05000000 </v>
    </varray>
   </crystal>
   <varray name="positions" >
    <v>       0.36368369       0.72121222       0.49772181 </v>
    <v>       0.38692861       0.69016893       0.49750608 </v>
    <v>       0.35612064       0.63553013       0.49783170 </v>
    <v>       0.30189740       0.61234444       0.49716939 </v>
    <v>       0.27805133       0.64322208       0.49737538 </v>
    <v>       0.30903689       0.69744756       0.49715513 </v>
    <v>       0.38010719       0.60254122       0.50045485 </v>
    <v>       0.22112090       0.61934220       0.49949874 </v>
    <v>       0.39670960       0.77811029       0.50015085 </v>
    <v>       0.63325660       0.27856566       0.48971005 </v>
    <v>       0.61203761       0.31142803       0.48923118 </v>
    <v>       0.64461017       0.36592987       0.48931522 </v>
    <v>       0.69862263       0.38707388       0.48886942 </v>
    <v>       0.72055459       0.35443214       0.48933877 </v>
    <v>       0.68776792       0.30042610       0.48929520 </v>
    <v>       0.62296099       0.40086113       0.49283604 </v>
    <v>       0.77706792       0.37604737       0.49281351 </v>
    <v>       0.59841942       0.22207917       0.49347750 </v>
    <v>       0.41126375       0.86172557       0.51955074 </v>
    <v>       0.42377256       0.88871654       0.58035184 </v>
    <v>       0.45457076       0.94266444       0.57999849 </v>
    <v>       0.47456840       0.97234046       0.52119903 </v>
    <v>       0.51136717       0.02877375       0.51868005 </v>
    <v>       0.54890976       0.05546506       0.56858387 </v>
    <v>       0.58358595       0.10851256       0.56369024 </v>
    <v>       0.44912883       0.58796802       0.51993047 </v>
    <v>       0.46337900       0.57508950       0.58066848 </v>
    <v>       0.48647812       0.54416434       0.58012686 </v>
    <v>       0.49636554       0.52442240       0.52120677 </v>
    <v>       0.51616674       0.48768247       0.51846655 </v>
    <v>       0.50544816       0.45002128       0.56819092 </v>
    <v>       0.52407801       0.41549750       0.56315910 </v>
    <v>       0.13753568       0.55008269       0.51820264 </v>
    <v>       0.11058758       0.53574468       0.57903559 </v>
    <v>       0.05661853       0.51250185       0.57870580 </v>
    <v>       0.02690093       0.50258433       0.51989952 </v>
    <v>       0.97043134       0.48284517       0.51739082 </v>
    <v>       0.94367231       0.49391231       0.56703566 </v>
    <v>       0.89056779       0.47533791       0.56218814 </v>
    <v>       0.45869536       0.94438400       0.46015384 </v>
    <v>       0.42831024       0.89021450       0.45972721 </v>
    <v>       0.58051385       0.13705768       0.50939694 </v>
    <v>       0.54456222       0.11030704       0.45794118 </v>
    <v>       0.51102452       0.05666226       0.46144638 </v>
    <v>       0.47508795       0.02647303       0.40464730 </v>
    <v>       0.47512059       0.97507366       0.39579533 </v>
    <v>       0.48439822       0.54056219       0.46026553 </v>
    <v>       0.46068104       0.57107853       0.46002486 </v>
    <v>       0.55578040       0.41879305       0.50887150 </v>
    <v>       0.56483103       0.45482898       0.45755478 </v>
    <v>       0.54451328       0.48826043       0.46122936 </v>
    <v>       0.55015858       0.52431914       0.40458669 </v>
    <v>       0.49871966       0.52427810       0.39581065 </v>
    <v>       0.05481943       0.51446573       0.45884236 </v>
    <v>       0.10900259       0.53833011       0.45837841 </v>
    <v>       0.86204655       0.44331627       0.50821603 </v>
    <v>       0.88886037       0.43391702       0.45697374 </v>
    <v>       0.94256278       0.45422866       0.46041259 </v>
    <v>       0.97285740       0.44834541       0.40379949 </v>
    <v>       0.02402289       0.49983433       0.39456283 </v>
    <v>       0.27724471       0.57000750       0.49734858 </v>
    <v>       0.29135638       0.72215780       0.49732896 </v>
    <v>       0.42926192       0.70779058       0.49793782 </v>
    <v>       0.43806297       0.79410440       0.48630383 </v>
    <v>       0.20507235       0.64478195       0.48608359 </v>
    <v>       0.35493924       0.56117065       0.48660666 </v>
    <v>       0.72466890       0.42920402       0.48950338 </v>
    <v>       0.70387240       0.27434720       0.49023714 </v>
    <v>       0.56990342       0.29540140       0.49010383 </v>
    <v>       0.55642538       0.20807073       0.48653895 </v>
    <v>       0.79115018       0.34806464       0.48608959 </v>
    <v>       0.65089530       0.44282318       0.48571873 </v>
    <v>       0.55211576       0.03432673       0.61125493 </v>
    <v>       0.61304385       0.12890900       0.60201021 </v>
    <v>       0.40939860       0.86792240       0.62742209 </v>
    <v>       0.48101220       0.44658676       0.61084347 </v>
    <v>       0.51515244       0.38596894       0.60135330 </v>
    <v>       0.45679110       0.58923398       0.62783984 </v>
    <v>       0.96479174       0.51855513       0.60946607 </v>
    <v>       0.87010887       0.48454544       0.60030837 </v>
    <v>       0.13141463       0.54231102       0.62611596 </v>
    <v>       0.41643919       0.86942813       0.41215559 </v>
    <v>       0.54436397       0.13173373       0.41359681 </v>
    <v>       0.43504824       0.01793647       0.41567532 </v>
    <v>       0.48736179       0.04959868       0.35842154 </v>
    <v>       0.44895333       0.95169799       0.35507019 </v>
    <v>       0.51472977       0.98367598       0.38191200 </v>
    <v>       0.45187392       0.58315692       0.41251353 </v>
    <v>       0.58649492       0.45518409       0.41316532 </v>
    <v>       0.58152995       0.56434526       0.41574466 </v>
    <v>       0.56107167       0.51216027       0.35828814 </v>
    <v>       0.50144079       0.55051838       0.35518465 </v>
    <v>       0.46782440       0.48468564       0.38183556 </v>
    <v>       0.12977986       0.54707678       0.41080887 </v>
    <v>       0.86745042       0.41198787       0.41281188 </v>
    <v>       0.98175262       0.41712527       0.41523602 </v>
    <v>       0.94967481       0.43712499       0.35761308 </v>
    <v>       0.04743544       0.49701791       0.35385815 </v>
    <v>       0.01509165       0.53060705       0.38048588 </v>
    <v>       0.46182123       0.96775232       0.64620683 </v>
    <v>       0.37899325       0.80751658       0.51953420 </v>
    <v>       0.50399076       0.53640773       0.64631587 </v>
    <v>       0.42717670       0.62033159       0.51997406 </v>
    <v>       0.03155027       0.49486731       0.64494013 </v>
    <v>       0.19177385       0.57209823       0.51816471 </v>
    <v>       0.61521235       0.19066650       0.50718410 </v>
    <v>       0.57482942       0.38415135       0.50661109 </v>
    <v>       0.80839212       0.42426390       0.50609499 </v>
    <v>       0.47700477       0.95087300       0.69271636 </v>
    <v>       0.45064625       0.00268770       0.65115723 </v>
    <v>       0.47175078       0.52088380       0.69258536 </v>
    <v>       0.55003866       0.54749900       0.65147909 </v>
    <v>       0.04872891       0.52686935       0.69145337 </v>
    <v>       0.99630160       0.44897744       0.64992137 </v>
   </varray>
  </structure>
  <varray name="forces" >
   <v>       0.00317918       0.00068819      -0.00066796 </v>
   <v>      -0.00028147       0.00125168      -0.00018982 </v>
   <v>       0.00155350      -0.00025963       0.00057559 </v>
   <v>      -0.00416861       0.00030167       0.00066307 </v>
   <v>       0.00315466      -0.00328554      -0.00009905 </v>
   <v>      -0.00598961       0.00047134      -0.00085196 </v>
   <v>       0.00063067       0.00049217       0.00033074 </v>
   <v>      -0.00090409       0.00425771      -0.00135623 </v>
   <v>       0.00091555      -0.00042359      -0.00002981 </v>
   <v>       0.00080996       0.00457120      -0.00079500 </v>
   <v>      -0.00294357      -0.00433996       0.00008738 </v>
   <v>       0.00128321       0.00307828       0.00078782 </v>
   <v>      -0.00218063       0.00277111       0.00151634 </v>
   <v>       0.00195846      -0.00322636       0.00117195 </v>
   <v>      -0.00040764       0.00037712      -0.00047768 </v>
   <v>       0.00065300      -0.00172981       0.00042148 </v>
   <v>      -0.00134744      -0.00083768       0.00053369 </v>
   <v>       0.00088081      -0.00318328       0.00219547 </v>
   <v>       0.00135963       0.00310832      -0.00095963 </v>
   <v>      -0.00054723       0.00130865       0.00114276 </v>
   <v>       0.00106662      -0.00111625      -0.00066636 </v>
   <v>      -0.00055530      -0.00076864      -0.00229368 </v>
   <v>       0.00006738      -0.00024329       0.00016090 </v>
   <v>       0.00072821      -0.00026509      -0.00132026 </v>
   <v>       0.00110833       0.00303055      -0.00091688 </v>
   <v>      -0.00163403      -0.00115975       0.00193905 </v>
   <v>       0.00163690      -0.00128769      -0.00053820 </v>
   <v>      -0.00130296       0.00171780       0.00189407 </v>
   <v>       0.00134571      -0.00112053       0.00069448 </v>
   <v>      -0.00008296      -0.00060459      -0.00046902 </v>
   <v>      -0.00197926      -0.00042904      -0.00044448 </v>
   <v>      -0.00073934       0.00029229      -0.00093703 </v>
   <v>       0.00111081      -0.00158967      -0.00183189 </v>
   <v>       0.00174252       0.00161348       0.00032830 </v>
   <v>      -0.00146533      -0.00110248       0.00081194 </v>
   <v>       0.00081327       0.00066051      -0.00018289 </v>
   <v>      -0.00298157      -0.00011411      -0.00090551 </v>
   <v>       0.00124352      -0.00022949      -0.00122913 </v>
   <v>      -0.00092083      -0.00070837      -0.00125682 </v>
   <v>       0.00109719       0.00126872       0.00128005 </v>
   <v>      -0.00040148       0.00184528       0.00302317 </v>
   <v>       0.00213669      -0.00225672       0.00240403 </v>
   <v>       0.00293315       0.00281962       0.00285626 </v>
   <v>       0.00093520      -0.00260032      -0.00079744 </v>
   <v>      -0.00085206       0.00074462      -0.00050423 </v>
   <v>       0.00137422      -0.00010972       0.00170008 </v>
   <v>       0.00050891       0.00062460       0.00074365 </v>
   <v>       0.00021683       0.00125789       0.00070663 </v>
   <v>      -0.00479502      -0.00069297       0.00177658 </v>
   <v>       0.00035517       0.00034039      -0.00060242 </v>
   <v>      -0.00195950      -0.00041920       0.00079788 </v>
   <v>       0.00089238      -0.00200636      -0.00072772 </v>
   <v>      -0.00002291      -0.00040536       0.00067691 </v>
   <v>      -0.00441070      -0.00210929      -0.00289766 </v>
   <v>       0.00402183       0.00163782       0.00029364 </v>
   <v>       0.00031755      -0.00023929       0.00010985 </v>
   <v>      -0.00164349      -0.00090122      -0.00197962 </v>
   <v>       0.00002473       0.00029210       0.00022083 </v>
   <v>       0.00021066       0.00135418      -0.00236608 </v>
   <v>       0.00065809       0.00178190      -0.00035619 </v>
   <v>       0.00034704       0.00154009       0.00007746 </v>
   <v>       0.00241692      -0.00051738       0.00035429 </v>
   <v>       0.00260877       0.00160986       0.00022467 </v>
   <v>       0.00197138      -0.00013820      -0.00052195 </v>
   <v>       0.00086047      -0.00206145      -0.00125639 </v>
   <v>      -0.00316180       0.00192581      -0.00251794 </v>
   <v>       0.00052200      -0.00204401       0.00012752 </v>
   <v>      -0.00001917      -0.00148056      -0.00003483 </v>
   <v>       0.00094738      -0.00006770       0.00103261 </v>
   <v>      -0.00005023       0.00041209       0.00115478 </v>
   <v>      -0.00113578      -0.00163387       0.00044263 </v>
   <v>       0.00063814      -0.00036438       0.00145500 </v>
   <v>       0.00135713       0.00081890       0.00000625 </v>
   <v>       0.00006374       0.00012680      -0.00041718 </v>
   <v>      -0.00085749       0.00121957      -0.00067864 </v>
   <v>      -0.00138912      -0.00018913      -0.00041080 </v>
   <v>      -0.00134341      -0.00118801       0.00091254 </v>
   <v>       0.00088999       0.00258410       0.00155715 </v>
   <v>      -0.00045629      -0.00037176      -0.00101818 </v>
   <v>      -0.00128954       0.00041736       0.00007262 </v>
   <v>      -0.00102404       0.00089460      -0.00037704 </v>
   <v>      -0.00137475      -0.00083915      -0.00255281 </v>
   <v>       0.00045047      -0.00015219      -0.00226743 </v>
   <v>       0.00156273       0.00026132       0.00017355 </v>
   <v>       0.00160493      -0.00007982       0.00082498 </v>
   <v>       0.00024657      -0.00045979      -0.00139906 </v>
   <v>       0.00193725      -0.00019303       0.00006288 </v>
   <v>      -0.00008291       0.00221555      -0.00072092 </v>
   <v>      -0.00042543      -0.00018606       0.00080636 </v>
   <v>       0.00022797      -0.00080757      -0.00020962 </v>
   <v>      -0.00004510      -0.00067676       0.00108923 </v>
   <v>      -0.00019514       0.00030702      -0.00058601 </v>
   <v>      -0.00097437       0.00013670       0.00075885 </v>
   <v>      -0.00027313      -0.00081169      -0.00108674 </v>
   <v>      -0.00091333       0.00136962       0.00009975 </v>
   <v>      -0.00058703      -0.00067316      -0.00087593 </v>
   <v>      -0.00109770       0.00033324      -0.00048572 </v>
   <v>       0.00071400       0.00024382       0.00016406 </v>
   <v>       0.00137363      -0.00130439      -0.00060200 </v>
   <v>       0.00118527      -0.00024545       0.00424224 </v>
   <v>      -0.00214760       0.00134077       0.00181348 </v>
   <v>      -0.00046302      -0.00104503       0.00095707 </v>
   <v>      -0.00075548       0.00080598      -0.00063206 </v>
   <v>      -0.00132203      -0.00497130      -0.00286489 </v>
   <v>      -0.00043392      -0.00377726       0.00027245 </v>
   <v>      -0.00069397       0.00081908       0.00066848 </v>
   <v>       0.00128003      -0.00073812      -0.00090150 </v>
   <v>      -0.00243035      -0.00139876      -0.00000446 </v>
   <v>      -0.00148687       0.00152033      -0.00224711 </v>
   <v>       0.00002983       0.00084000      -0.00138255 </v>
   <v>      -0.00000623       0.00082676      -0.00043664 </v>
   <v>       0.00105054      -0.00126491       0.00111951 </v>
   <v>       0.00187743       0.00089780       0.00201604 </v>
   <v>       0.00186415       0.00201982       0.00080800 </v>
  </varray>
  <varray name="stress" >
   <v>      -0.00269186       0.00091026      -0.00118153 </v>
   <v>       0.00091026      -0.00165708       0.00329195 </v>
   <v>      -0.00118153       0.00329195      -0.19352851 </v>
  </varray>
  <energy>
   <i name="e_fr_energy">   -790.51357413 </i>
   <i name="e_wo_entrp">   -790.51357413 </i>
   <i name="e_0_energy">     -0.00000000 </i>
  </energy>
  <time name="totalsc"> 2354.16 2378.00</time>
  <eigenvalues>
   <array>
    <dimension dim="1">band</dimension>
    <dimension dim="2">kpoint</dimension>
    <dimension dim="3">spin</dimension>
    <field>eigene</field>
    <field>occ</field>
    <set>
     <set comment="spin 1">
      <set comment="kpoint 1">
       <r>  -30.4458    1.0000 </r>
       <r>  -30.4435    1.0000 </r>
       <r>  -30.4385    1.0000 </r>
       <r>  -26.0587    1.0000 </r>
       <r>  -26.0562    1.0000 </r>
       <r>  -26.0508    1.0000 </r>
       <r>  -23.8471    1.0000 </r>
       <r>  -23.7985    1.0000 </r>
       <r>  -23.7966    1.0000 </r>
       <r>  -23.4035    1.0000 </r>
       <r>  -23.3526    1.0000 </r>
       <r>  -23.3515    1.0000 </r>
       <r>  -22.2021    1.0000 </r>
       <r>  -22.0781    1.0000 </r>
       <r>  -22.0779    1.0000 </r>
       <r>  -21.8993    1.0000 </r>
       <r>  -21.6362    1.0000 </r>
       <r>  -21.1384    1.0000 </r>
       <r>  -21.1380    1.0000 </r>
       <r>  -21.0167    1.0000 </r>
       <r>  -20.2441    1.0000 </r>
       <r>  -20.2431    1.0000 </r>
       <r>  -20.1949    1.0000 </r>
       <r>  -20.0001    1.0000 </r>
       <r>  -19.9986    1.0000 </r>
       <r>  -19.4801    1.0000 </r>
       <r>  -19.4444    1.0000 </r>
       <r>  -19.4440    1.0000 </r>
       <r>  -19.0879    1.0000 </r>
       <r>  -19.0872    1.0000 </r>
       <r>  -18.9467    1.0000 </r>
       <r>  -18.8313    1.0000 </r>
       <r>  -18.8300    1.0000 </r>
       <r>  -18.3095    1.0000 </r>
       <r>  -18.1161    1.0000 </r>
       <r>  -18.1150    1.0000 </r>
       <r>  -17.8357    1.0000 </r>
       <r>  -17.7835    1.0000 </r>
       <r>  -17.7823    1.0000 </r>
       <r>  -17.0610    1.0000 </r>
       <r>  -17.0291    1.0000 </r>
       <r>  -17.0285    1.0000 </r>
       <r>  -16.7266    1.0000 </r>
       <r>  -16.7262    1.0000 </r>
       <r>  -16.6715    1.0000 </r>
       <r>  -16.1573    1.0000 </r>
       <r>  -16.1564    1.0000 </r>
       <r>  -15.9583    1.0000 </r>
       <r>  -15.8023    1.0000 </r>
       <r>  -15.8009    1.0000 </r>
       <r>  -15.7136    1.0000 </r>
       <r>  -15.2148    1.0000 </r>
       <r>  -15.2131    1.0000 </r>
       <r>  -14.9904    1.0000 </r>
       <r>  -14.9882    1.0000 </r>
       <r>  -14.9330    1.0000 </r>
       <r>  -14.5888    1.0000 </r>
       <r>  -14.4485    1.0000 </r>
       <r>  -14.4473    1.0000 </r>
       <r>  -14.1025    1.0000 </r>
       <r>  -13.8444    1.0000 </r>
       <r>  -13.8428    1.0000 </r>
       <r>  -13.6784    1.0000 </r>
       <r>  -13.5715    1.0000 </r>
       <r>  -13.5702    1.0000 </r>
       <r>  -13.3410    1.0000 </r>
       <r>  -13.2011    1.0000 </r>
       <r>  -13.1989    1.0000 </r>
       <r>  -13.0391    1.0000 </r>
       <r>  -13.0371    1.0000 </r>
       <r>  -13.0084    1.0000 </r>
       <r>  -12.8859    1.0000 </r>
       <r>  -12.8166    1.0000 </r>
       <r>  -12.8152    1.0000 </r>
       <r>  -12.7219    1.0000 </r>
       <r>  -12.5353    1.0000 </r>
       <r>  -12.4878    1.0000 </r>
       <r>  -12.4868    1.0000 </r>
       <r>  -12.4536    1.0000 </r>
       <r>  -12.3116    1.0000 </r>
       <r>  -12.3107    1.0000 </r>
       <r>  -12.3095    1.0000 </r>
       <r>  -12.2474    1.0000 </r>
       <r>  -12.1571    1.0000 </r>
       <r>  -12.1546    1.0000 </r>
       <r>  -11.9307    1.0000 </r>
       <r>  -11.9294    1.0000 </r>
       <r>  -11.9007    1.0000 </r>
       <r>  -11.7900    1.0000 </r>
       <r>  -11.7889    1.0000 </r>
       <r>  -11.6926    1.0000 </r>
       <r>  -11.4326    1.0000 </r>
       <r>  -11.3656    1.0000 </r>
       <r>  -11.3653    1.0000 </r>
       <r>  -11.2500    1.0000 </r>
       <r>  -11.0782    1.0000 </r>
       <r>  -11.0089    1.0000 </r>
       <r>  -11.0070    1.0000 </r>
       <r>  -10.8985    1.0000 </r>
       <r>  -10.8973    1.0000 </r>
       <r>  -10.8445    1.0000 </r>
       <r>  -10.6118    1.0000 </r>
       <r>  -10.6116    1.0000 </r>
       <r>  -10.5784    1.0000 </r>
       <r>  -10.4916    1.0000 </r>
       <r>  -10.4467    1.0000 </r>
       <r>  -10.4459    1.0000 </r>
       <r>  -10.3535    1.0000 </r>
       <r>  -10.3523    1.0000 </r>
       <r>  -10.2726    1.0000 </r>
       <r>  -10.1591    1.0000 </r>
       <r>  -10.0359    1.0000 </r>
       <r>  -10.0356    1.0000 </r>
       <r>  -10.0027    1.0000 </r>
       <r>   -9.8854    1.0000 </r>
       <r>   -9.7157    1.0000 </r>
       <r>   -9.7145    1.0000 </r>
       <r>   -9.6360    1.0000 </r>
       <r>   -9.5918    1.0000 </r>
       <r>   -9.5916    1.0000 </r>
       <r>   -9.5515    1.0000 </r>
       <r>   -9.4594    1.0000 </r>
       <r>   -9.4568    1.0000 </r>
       <r>   -9.4239    1.0000 </r>
       <r>   -9.2952    1.0000 </r>
       <r>   -9.2938    1.0000 </r>
       <r>   -9.1767    1.0000 </r>
       <r>   -9.1757    1.0000 </r>
       <r>   -9.0978    1.0000 </r>
       <r>   -9.0058    1.0000 </r>
       <r>   -9.0042    1.0000 </r>
       <r>   -8.9178    1.0000 </r>
       <r>   -8.8469    1.0000 </r>
       <r>   -8.8454    1.0000 </r>
       <r>   -8.7428    1.0000 </r>
       <r>   -8.7416    1.0000 </r>
       <r>   -8.6270    1.0000 </r>
       <r>   -8.5190    1.0000 </r>
       <r>   -8.5185    1.0000 </r>
       <r>   -8.3182    1.0000 </r>
       <r>   -8.3179    1.0000 </r>
       <r>   -8.1434    1.0000 </r>
       <r>   -8.0837    1.0000 </r>
       <r>   -8.0797    1.0000 </r>
       <r>   -8.0786    1.0000 </r>
       <r>   -7.9713    1.0000 </r>
       <r>   -7.8929    1.0000 </r>
       <r>   -7.8927    1.0000 </r>
       <r>   -7.6787    1.0000 </r>
       <r>   -7.5213    1.0000 </r>
       <r>   -7.5205    1.0000 </r>
       <r>   -7.3723    1.0000 </r>
       <r>   -7.3684    1.0000 </r>
       <r>   -7.3648    1.0000 </r>
       <r>   -7.2779    1.0000 </r>
       <r>   -6.9686    1.0000 </r>
       <r>   -6.9664    1.0000 </r>
       <r>   -6.8852    1.0000 </r>
       <r>   -6.7819    1.0000 </r>
       <r>   -6.7785    1.0000 </r>
       <r>   -6.7191    1.0000 </r>
       <r>   -6.6940    1.0000 </r>
       <r>   -6.6923    1.0000 </r>
       <r>   -6.5424    1.0000 </r>
       <r>   -6.5410    1.0000 </r>
       <r>   -6.5292    1.0000 </r>
       <r>   -6.1104    1.0000 </r>
       <r>   -6.1086    1.0000 </r>
       <r>   -6.0651    1.0000 </r>
       <r>   -6.0627    1.0000 </r>
       <r>   -6.0615    1.0000 </r>
       <r>   -6.0161    1.0000 </r>
       <r>   -6.0134    1.0000 </r>
       <r>   -6.0117    1.0000 </r>
       <r>   -5.9307    1.0000 </r>
       <r>   -5.8812    1.0000 </r>
       <r>   -5.8777    1.0000 </r>
       <r>   -5.0377    1.0000 </r>
       <r>   -5.0015    1.0000 </r>
       <r>   -4.9994    1.0000 </r>
       <r>   -3.0529    0.0000 </r>
       <r>   -3.0519    0.0000 </r>
       <r>   -2.9905    0.0000 </r>
       <r>   -2.9438    0.0000 </r>
       <r>   -2.9413    0.0000 </r>
       <r>   -2.6876    0.0000 </r>
       <r>   -2.6872    0.0000 </r>
       <r>   -2.3883    0.0000 </r>
       <r>   -2.1122    0.0000 </r>
       <r>   -1.5590    0.0000 </r>
       <r>   -1.5574    0.0000 </r>
       <r>   -1.3840    0.0000 </r>
       <r>   -1.3775    0.0000 </r>
       <r>   -1.3405    0.0000 </r>
       <r>   -1.2944    0.0000 </r>
       <r>   -0.9958    0.0000 </r>
       <r>   -0.9942    0.0000 </r>
       <r>   -0.9861    0.0000 </r>
       <r>   -0.5108    0.0000 </r>
       <r>   -0.4313    0.0000 </r>
       <r>   -0.4297    0.0000 </r>
       <r>   -0.2551    0.0000 </r>
       <r>   -0.2180    0.0000 </r>
       <r>   -0.2149    0.0000 </r>
       <r>   -0.1769    0.0000 </r>
       <r>   -0.1762    0.0000 </r>
       <r>   -0.0836    0.0000 </r>
       <r>   -0.0257    0.0000 </r>
       <r>   -0.0251    0.0000 </r>
       <r>    0.0662    0.0000 </r>
       <r>    0.1705    0.0000 </r>
       <r>    0.1713    0.0000 </r>
       <r>    0.1798    0.0000 </r>
       <r>    0.2111    0.0000 </r>
       <r>    0.2118    0.0000 </r>
       <r>    0.2767    0.0000 </r>
       <r>    0.3275    0.0000 </r>
       <r>    0.3276    0.0000 </r>
       <r>    0.3511    0.0000 </r>
       <r>    0.4200    0.0000 </r>
       <r>    0.4305    0.0000 </r>
       <r>    0.4311    0.0000 </r>
       <r>    0.5314    0.0000 </r>
       <r>    0.5802    0.0000 </r>
       <r>    0.5809    0.0000 </r>
       <r>    0.6536    0.0000 </r>
       <r>    0.6541    0.0000 </r>
       <r>    0.6575    0.0000 </r>
       <r>    0.7038    0.0000 </r>
       <r>    0.7044    0.0000 </r>
       <r>    0.7360    0.0000 </r>
       <r>    0.7390    0.0000 </r>
       <r>    0.8066    0.0000 </r>
       <r>    0.8070    0.0000 </r>
       <r>    0.8318    0.0000 </r>
       <r>    0.8651    0.0000 </r>
       <r>    0.8657    0.0000 </r>
       <r>    0.9071    0.0000 </r>
       <r>    0.9260    0.0000 </r>
       <r>    0.9316    0.0000 </r>
      </set>
      <set comment="kpoint 2">
       <r>  -30.4458    1.0000 </r>
       <r>  -30.4435    1.0000 </r>
       <r>  -30.4385    1.0000 </r>
       <r>  -26.0587    1.0000 </r>
       <r>  -26.0562    1.0000 </r>
       <r>  -26.0508    1.0000 </r>
       <r>  -23.8471    1.0000 </r>
       <r>  -23.7985    1.0000 </r>
       <r>  -23.7966    1.0000 </r>
       <r>  -23.4035    1.0000 </r>
       <r>  -23.3526    1.0000 </r>
       <r>  -23.3515    1.0000 </r>
       <r>  -22.2021    1.0000 </r>
       <r>  -22.0782    1.0000 </r>
       <r>  -22.0779    1.0000 </r>
       <r>  -21.8993    1.0000 </r>
       <r>  -21.6362    1.0000 </r>
       <r>  -21.1384    1.0000 </r>
       <r>  -21.1378    1.0000 </r>
       <r>  -21.0169    1.0000 </r>
       <r>  -20.2441    1.0000 </r>
       <r>  -20.2431    1.0000 </r>
       <r>  -20.1950    1.0000 </r>
       <r>  -20.0000    1.0000 </r>
       <r>  -19.9986    1.0000 </r>
       <r>  -19.4846    1.0000 </r>
       <r>  -19.4444    1.0000 </r>
       <r>  -19.4394    1.0000 </r>
       <r>  -19.0879    1.0000 </r>
       <r>  -19.0874    1.0000 </r>
       <r>  -18.9467    1.0000 </r>
       <r>  -18.8313    1.0000 </r>
       <r>  -18.8304    1.0000 </r>
       <r>  -18.3091    1.0000 </r>
       <r>  -18.1161    1.0000 </r>
       <r>  -18.1152    1.0000 </r>
       <r>  -17.8357    1.0000 </r>
       <r>  -17.7835    1.0000 </r>
       <r>  -17.7825    1.0000 </r>
       <r>  -17.0610    1.0000 </r>
       <r>  -17.0291    1.0000 </r>
       <r>  -17.0285    1.0000 </r>
       <r>  -16.7266    1.0000 </r>
       <r>  -16.7263    1.0000 </r>
       <r>  -16.6713    1.0000 </r>
       <r>  -16.1572    1.0000 </r>
       <r>  -16.1562    1.0000 </r>
       <r>  -15.9586    1.0000 </r>
       <r>  -15.8024    1.0000 </r>
       <r>  -15.8009    1.0000 </r>
       <r>  -15.7139    1.0000 </r>
       <r>  -15.2143    1.0000 </r>
       <r>  -15.2130    1.0000 </r>
       <r>  -14.9904    1.0000 </r>
       <r>  -14.9882    1.0000 </r>
       <r>  -14.9330    1.0000 </r>
       <r>  -14.5909    1.0000 </r>
       <r>  -14.4484    1.0000 </r>
       <r>  -14.4454    1.0000 </r>
       <r>  -14.1027    1.0000 </r>
       <r>  -13.8444    1.0000 </r>
       <r>  -13.8427    1.0000 </r>
       <r>  -13.6793    1.0000 </r>
       <r>  -13.5715    1.0000 </r>
       <r>  -13.5695    1.0000 </r>
       <r>  -13.3410    1.0000 </r>
       <r>  -13.2011    1.0000 </r>
       <r>  -13.1989    1.0000 </r>
       <r>  -13.0391    1.0000 </r>
       <r>  -13.0371    1.0000 </r>
       <r>  -13.0083    1.0000 </r>
       <r>  -12.8861    1.0000 </r>
       <r>  -12.8167    1.0000 </r>
       <r>  -12.8151    1.0000 </r>
       <r>  -12.7218    1.0000 </r>
       <r>  -12.5355    1.0000 </r>
       <r>  -12.4886    1.0000 </r>
       <r>  -12.4873    1.0000 </r>
       <r>  -12.4521    1.0000 </r>
       <r>  -12.3115    1.0000 </r>
       <r>  -12.3106    1.0000 </r>
       <r>  -12.3095    1.0000 </r>
       <r>  -12.2474    1.0000 </r>
       <r>  -12.1571    1.0000 </r>
       <r>  -12.1544    1.0000 </r>
       <r>  -11.9316    1.0000 </r>
       <r>  -11.9294    1.0000 </r>
       <r>  -11.9001    1.0000 </r>
       <r>  -11.7901    1.0000 </r>
       <r>  -11.7891    1.0000 </r>
       <r>  -11.6922    1.0000 </r>
       <r>  -11.4332    1.0000 </r>
       <r>  -11.3654    1.0000 </r>
       <r>  -11.3650    1.0000 </r>
       <r>  -11.2500    1.0000 </r>
       <r>  -11.0781    1.0000 </r>
       <r>  -11.0089    1.0000 </r>
       <r>  -11.0070    1.0000 </r>
       <r>  -10.8985    1.0000 </r>
       <r>  -10.8973    1.0000 </r>
       <r>  -10.8446    1.0000 </r>
       <r>  -10.6119    1.0000 </r>
       <r>  -10.6116    1.0000 </r>
       <r>  -10.5784    1.0000 </r>
       <r>  -10.4916    1.0000 </r>
       <r>  -10.4467    1.0000 </r>
       <r>  -10.4458    1.0000 </r>
       <r>  -10.3535    1.0000 </r>
       <r>  -10.3522    1.0000 </r>
       <r>  -10.2727    1.0000 </r>
       <r>  -10.1592    1.0000 </r>
       <r>  -10.0359    1.0000 </r>
       <r>  -10.0357    1.0000 </r>
       <r>  -10.0026    1.0000 </r>
       <r>   -9.8854    1.0000 </r>
       <r>   -9.7157    1.0000 </r>
       <r>   -9.7144    1.0000 </r>
       <r>   -9.6361    1.0000 </r>
       <r>   -9.5918    1.0000 </r>
       <r>   -9.5916    1.0000 </r>
       <r>   -9.5517    1.0000 </r>
       <r>   -9.4594    1.0000 </r>
       <r>   -9.4568    1.0000 </r>
       <r>   -9.4239    1.0000 </r>
       <r>   -9.2951    1.0000 </r>
       <r>   -9.2936    1.0000 </r>
       <r>   -9.1767    1.0000 </r>
       <r>   -9.1757    1.0000 </r>
       <r>   -9.0979    1.0000 </r>
       <r>   -9.0057    1.0000 </r>
       <r>   -9.0042    1.0000 </r>
       <r>   -8.9190    1.0000 </r>
       <r>   -8.8464    1.0000 </r>
       <r>   -8.8448    1.0000 </r>
       <r>   -8.7428    1.0000 </r>
       <r>   -8.7414    1.0000 </r>
       <r>   -8.6268    1.0000 </r>
       <r>   -8.5190    1.0000 </r>
       <r>   -8.5185    1.0000 </r>
       <r>   -8.3189    1.0000 </r>
       <r>   -8.3179    1.0000 </r>
       <r>   -8.1433    1.0000 </r>
       <r>   -8.0855    1.0000 </r>
       <r>   -8.0799    1.0000 </r>
       <r>   -8.0760    1.0000 </r>
       <r>   -7.9712    1.0000 </r>
       <r>   -7.8929    1.0000 </r>
       <r>   -7.8926    1.0000 </r>
       <r>   -7.6795    1.0000 </r>
       <r>   -7.5212    1.0000 </r>
       <r>   -7.5201    1.0000 </r>
       <r>   -7.3723    1.0000 </r>
       <r>   -7.3684    1.0000 </r>
       <r>   -7.3648    1.0000 </r>
       <r>   -7.2779    1.0000 </r>
       <r>   -6.9686    1.0000 </r>
       <r>   -6.9663    1.0000 </r>
       <r>   -6.8852    1.0000 </r>
       <r>   -6.7819    1.0000 </r>
       <r>   -6.7785    1.0000 </r>
       <r>   -6.7192    1.0000 </r>
       <r>   -6.6940    1.0000 </r>
       <r>   -6.6924    1.0000 </r>
       <r>   -6.5428    1.0000 </r>
       <r>   -6.5410    1.0000 </r>
       <r>   -6.5287    1.0000 </r>
       <r>   -6.1104    1.0000 </r>
       <r>   -6.1086    1.0000 </r>
       <r>   -6.0651    1.0000 </r>
       <r>   -6.0627    1.0000 </r>
       <r>   -6.0615    1.0000 </r>
       <r>   -6.0161    1.0000 </r>
       <r>   -6.0134    1.0000 </r>
       <r>   -6.0117    1.0000 </r>
       <r>   -5.9307    1.0000 </r>
       <r>   -5.8812    1.0000 </r>
       <r>   -5.8778    1.0000 </r>
       <r>   -5.0377    1.0000 </r>
       <r>   -5.0015    1.0000 </r>
       <r>   -4.9994    1.0000 </r>
       <r>   -3.0529    0.0000 </r>
       <r>   -3.0518    0.0000 </r>
       <r>   -2.9906    0.0000 </r>
       <r>   -2.9438    0.0000 </r>
       <r>   -2.9413    0.0000 </r>
       <r>   -2.6876    0.0000 </r>
       <r>   -2.6873    0.0000 </r>
[...]
       <r>   -25.7991     0.0000    12.0000 </r>
       <r>   -25.6839     0.0000    12.0000 </r>
       <r>   -25.5688     0.0000    12.0000 </r>
       <r>   -25.4537     0.0000    12.0000 </r>
       <r>   -25.3386     0.0000    12.0000 </r>
       <r>   -25.2234     0.0000    12.0000 </r>
       <r>   -25.1083     0.0000    12.0000 </r>
       <r>   -24.9932     0.0000    12.0000 </r>
       <r>   -24.8781     0.0000    12.0000 </r>
       <r>   -24.7629     0.0000    12.0000 </r>
       <r>   -24.6478     0.0000    12.0000 </r>
       <r>   -24.5327     0.0000    12.0000 </r>
       <r>   -24.4176     0.0000    12.0000 </r>
       <r>   -24.3025     0.0000    12.0000 </r>
       <r>   -24.1873     0.0000    12.0000 </r>
       <r>   -24.0722     0.0000    12.0000 </r>
       <r>   -23.9571     0.0000    12.0000 </r>
       <r>   -23.8420    13.2752    13.5283 </r>
       <r>   -23.7268    34.7455    18.0000 </r>
       <r>   -23.6117     0.0000    18.0000 </r>
       <r>   -23.4966     0.0000    18.0000 </r>
       <r>   -23.3815    17.3576    19.9983 </r>
       <r>   -23.2664     0.0000    24.0000 </r>
       <r>   -23.1512     0.0000    24.0000 </r>
       <r>   -23.0361     0.0000    24.0000 </r>
       <r>   -22.9210     0.0000    24.0000 </r>
       <r>   -22.8059     0.0000    24.0000 </r>
       <r>   -22.6907     0.0000    24.0000 </r>
       <r>   -22.5756     0.0000    24.0000 </r>
       <r>   -22.4605     0.0000    24.0000 </r>
       <r>   -22.3454     0.0000    24.0000 </r>
       <r>   -22.2302     0.0003    24.0000 </r>
       <r>   -22.1151     0.0001    26.0000 </r>
       <r>   -22.0000    21.1369    30.0000 </r>
       <r>   -21.8849    13.6516    31.5716 </r>
       <r>   -21.7698     0.0000    32.0000 </r>
       <r>   -21.6546     1.5364    32.1769 </r>
       <r>   -21.5395     0.0000    34.0000 </r>
       <r>   -21.4244     0.0000    34.0000 </r>
       <r>   -21.3093     0.0000    34.0000 </r>
       <r>   -21.1941     0.0000    34.0000 </r>
       <r>   -21.0790    34.6407    37.9879 </r>
       <r>   -20.9639     7.5282    40.0000 </r>
       <r>   -20.8488     0.0000    40.0000 </r>
       <r>   -20.7337     0.0000    40.0000 </r>
       <r>   -20.6185     0.0000    40.0000 </r>
       <r>   -20.5034     0.0000    40.0000 </r>
       <r>   -20.3883     0.0000    40.0000 </r>
       <r>   -20.2732     0.0005    40.0001 </r>
       <r>   -20.1580    17.3728    46.0000 </r>
       <r>   -20.0429     0.0000    46.0000 </r>
       <r>   -19.9278    34.7455    50.0000 </r>
       <r>   -19.8127     0.0000    50.0000 </r>
       <r>   -19.6975     0.0000    50.0000 </r>
       <r>   -19.5824    11.6901    51.3458 </r>
       <r>   -19.4673     3.7508    51.9985 </r>
       <r>   -19.3522     3.3180    54.5153 </r>
       <r>   -19.2371     5.9019    55.3461 </r>
       <r>   -19.1219    11.2392    57.1939 </r>
       <r>   -19.0068     0.0000    60.0000 </r>
       <r>   -18.8917    19.3155    62.2237 </r>
       <r>   -18.7766    22.8742    66.0000 </r>
       <r>   -18.6614     0.0000    66.0000 </r>
       <r>   -18.5463     0.0000    66.0000 </r>
       <r>   -18.4312     0.0000    66.0000 </r>
       <r>   -18.3161     0.3352    66.0386 </r>
       <r>   -18.2010    11.8714    68.0000 </r>
       <r>   -18.0858    34.7453    72.0000 </r>
       <r>   -17.9707     0.0000    72.0000 </r>
       <r>   -17.8556     0.0081    72.0009 </r>
       <r>   -17.7405    39.0887    78.0000 </r>
       <r>   -17.6253     0.0000    78.0000 </r>
       <r>   -17.5102     0.0000    78.0000 </r>
       <r>   -17.3951     0.0000    78.0000 </r>
       <r>   -17.2800     0.0000    78.0000 </r>
       <r>   -17.1649     0.0000    78.0000 </r>
       <r>   -17.0497    16.4465    79.8934 </r>
       <r>   -16.9346     0.0000    84.0000 </r>
       <r>   -16.8195     0.0000    84.0000 </r>
       <r>   -16.7044    34.7290    87.9981 </r>
       <r>   -16.5892    15.0564    90.0000 </r>
       <r>   -16.4741     0.0000    90.0000 </r>
       <r>   -16.3590     0.0000    90.0000 </r>
       <r>   -16.2439     0.0000    90.0000 </r>
       <r>   -16.1287    23.1100    92.6605 </r>
       <r>   -16.0136    16.3460    94.9818 </r>
       <r>   -15.8985     4.9223    96.0000 </r>
       <r>   -15.7834    34.3054    99.9493 </r>
       <r>   -15.6683     8.1073   102.0000 </r>
       <r>   -15.5531     0.0000   102.0000 </r>
       <r>   -15.4380     0.0000   102.0000 </r>
       <r>   -15.3229     0.0000   102.0000 </r>
       <r>   -15.2078    15.1813   103.7477 </r>
       <r>   -15.0926     6.2616   105.2875 </r>
       <r>   -14.9775    34.8360   109.9104 </r>
       <r>   -14.8624    17.3728   112.0000 </r>
       <r>   -14.7473     9.1493   113.0533 </r>
       <r>   -14.6322     3.2400   113.6397 </r>
       <r>   -14.5170     1.4477   114.0000 </r>
       <r>   -14.4019    20.6192   116.3737 </r>
       <r>   -14.2868     3.0763   116.9208 </r>
       <r>   -14.1717    10.4530   118.6034 </r>
       <r>   -14.0565     6.9491   120.0000 </r>
       <r>   -13.9414     0.0000   120.0000 </r>
       <r>   -13.8263    26.3648   123.0352 </r>
       <r>   -13.7112    13.1928   125.5188 </r>
       <r>   -13.5960     0.0022   126.0003 </r>
       <r>   -13.4809    15.0346   129.9975 </r>
       <r>   -13.3658     0.0221   130.0025 </r>
       <r>   -13.2507     0.0000   132.0000 </r>
       <r>   -13.1356    34.7455   136.0000 </r>
       <r>   -13.0204    34.6387   139.9877 </r>
       <r>   -12.9053    11.4350   143.3164 </r>
       <r>   -12.7902    33.1037   147.8110 </r>
       <r>   -12.6751    17.3728   150.0000 </r>
       <r>   -12.5599    12.1458   151.3983 </r>
       <r>   -12.4448    36.3924   156.1896 </r>
       <r>   -12.3297    12.2830   158.0141 </r>
       <r>   -12.2146    28.6651   166.0000 </r>
       <r>   -12.0995    34.6139   169.9848 </r>
       <r>   -11.9843    11.1422   171.2827 </r>
       <r>   -11.8692    32.6880   175.3965 </r>
       <r>   -11.7541    34.7455   180.0000 </r>
       <r>   -11.6390    12.4473   181.4330 </r>
       <r>   -11.5238     0.0007   182.0001 </r>
       <r>   -11.4087     8.9755   184.0000 </r>
       <r>   -11.2936    34.7454   188.0000 </r>
       <r>   -11.1785    17.3728   190.0000 </r>
       <r>   -11.0633    11.3360   191.3050 </r>
       <r>   -10.9482    34.7455   196.0000 </r>
       <r>   -10.8331    51.9716   201.9831 </r>
       <r>   -10.7180     0.0000   202.0000 </r>
       <r>   -10.6029    31.8890   205.6711 </r>
       <r>   -10.4877    11.9076   209.3708 </r>
       <r>   -10.3726    34.8141   214.0079 </r>
       <r>   -10.2575    17.2370   219.9844 </r>
       <r>   -10.1424    17.3406   221.9963 </r>
       <r>   -10.0272    32.4005   225.7300 </r>
       <r>    -9.9121    11.5837   228.0002 </r>
       <r>    -9.7970     0.0000   230.0000 </r>
       <r>    -9.6819    31.3022   233.6036 </r>
       <r>    -9.5668    46.5383   240.6576 </r>
       <r>    -9.4516    26.6669   245.0700 </r>
       <r>    -9.3365     0.0000   248.0000 </r>
       <r>    -9.2214    32.2964   251.7180 </r>
       <r>    -9.1063    33.2423   256.8936 </r>
       <r>    -8.9911    34.0382   261.9186 </r>
       <r>    -8.8760     4.3433   264.0000 </r>
       <r>    -8.7609    16.8154   268.1025 </r>
       <r>    -8.6458    12.4583   272.0009 </r>
       <r>    -8.5307    18.1748   274.7590 </r>
       <r>    -8.4155     3.0485   278.3510 </r>
       <r>    -8.3004    23.9280   281.9880 </r>
       <r>    -8.1853     0.0000   282.0000 </r>
       <r>    -8.0702    52.3416   288.0257 </r>
       <r>    -7.9550    25.8282   291.4734 </r>
       <r>    -7.8399    34.8590   296.0131 </r>
       <r>    -7.7248     7.7402   297.4244 </r>
       <r>    -7.6097     2.3164   298.0000 </r>
       <r>    -7.4945    22.5644   300.5977 </r>
       <r>    -7.3794     4.4395   302.5111 </r>
       <r>    -7.2643    17.0091   309.9581 </r>
       <r>    -7.1492     0.0000   310.0000 </r>
       <r>    -7.0341     0.0000   310.0000 </r>
       <r>    -6.9189    34.7474   314.0002 </r>
       <r>    -6.8038     0.0140   316.0016 </r>
       <r>    -6.6887    46.2119   325.3200 </r>
       <r>    -6.5736     0.6616   326.0762 </r>
       <r>    -6.4584    17.3728   332.0000 </r>
       <r>    -6.3433     0.0000   332.0000 </r>
       <r>    -6.2282     0.0000   332.0000 </r>
       <r>    -6.1131    12.3401   333.4206 </r>
       <r>    -5.9980   103.4449   347.9088 </r>
       <r>    -5.8828    36.3689   352.1869 </r>
       <r>    -5.7677     0.0000   354.0000 </r>
       <r>    -5.6526     0.0000   354.0000 </r>
       <r>    -5.5375     0.0000   354.0000 </r>
       <r>    -5.4223     0.0000   354.0000 </r>
       <r>    -5.3072     0.0000   354.0000 </r>
       <r>    -5.1921     0.0000   354.0000 </r>
       <r>    -5.0770     0.0000   354.0000 </r>
       <r>    -4.9618    52.1183   360.0000 </r>
       <r>    -4.8467     0.0000   360.0000 </r>
       <r>    -4.7316     0.0000   360.0000 </r>
       <r>    -4.6165     0.0000   360.0000 </r>
       <r>    -4.5014     0.0000   360.0000 </r>
       <r>    -4.3862     0.0000   360.0000 </r>
       <r>    -4.2711     0.0000   360.0000 </r>
       <r>    -4.1560     0.0000   360.0000 </r>
       <r>    -4.0409     0.0000   360.0000 </r>
       <r>    -3.9257     0.0000   360.0000 </r>
       <r>    -3.8106     0.0000   360.0000 </r>
       <r>    -3.6955     0.0000   360.0000 </r>
       <r>    -3.5804     0.0000   360.0000 </r>
       <r>    -3.4653     0.0000   360.0000 </r>
       <r>    -3.3501     0.0000   360.0000 </r>
       <r>    -3.2350     0.0000   360.0000 </r>
       <r>    -3.1199     0.0000   360.0000 </r>
       <r>    -3.0048    38.4508   364.4266 </r>
       <r>    -2.8896    34.7455   370.0000 </r>
       <r>    -2.7745     0.0000   370.0000 </r>
       <r>    -2.6594    34.7448   373.9999 </r>
       <r>    -2.5443     0.0000   374.0000 </r>
       <r>    -2.4291     0.0000   374.0000 </r>
       <r>    -2.3140    16.0060   375.8426 </r>
       <r>    -2.1989     0.1665   376.0192 </r>
       <r>    -2.0838     7.8177   378.0000 </r>
       <r>    -1.9687     0.0000   378.0000 </r>
       <r>    -1.8535     0.0000   378.0000 </r>
       <r>    -1.7384     0.0000   378.0000 </r>
       <r>    -1.6233     0.0000   378.0000 </r>
       <r>    -1.5082    26.7699   381.0818 </r>
       <r>    -1.3930    10.2894   383.1845 </r>
       <r>    -1.2779    34.7234   389.9974 </r>
       <r>    -1.1628     0.0000   390.0000 </r>
       <r>    -1.0477     0.0000   390.0000 </r>
       <r>    -0.9326    52.1183   396.0000 </r>
       <r>    -0.8174     0.0000   396.0000 </r>
       <r>    -0.7023     0.0000   396.0000 </r>
       <r>    -0.5872     0.0000   396.0000 </r>
       <r>    -0.4721    17.3728   398.0000 </r>
       <r>    -0.3569    34.7455   402.0000 </r>
       <r>    -0.2418    19.3227   404.2245 </r>
       <r>    -0.1267    26.7502   411.0796 </r>
       <r>    -0.0116    42.6863   417.0475 </r>
       <r>     0.1036    22.2178   420.5578 </r>
       <r>     0.2187    42.5008   427.6261 </r>
       <r>     0.3338    35.8042   433.3885 </r>
       <r>     0.4489    54.5907   441.3846 </r>
       <r>     0.5640    45.5377   448.1758 </r>
       <r>     0.6792    61.2247   457.0484 </r>
       <r>     0.7943    49.4607   465.5607 </r>
       <r>     0.9094    70.0107   476.2598 </r>
       <r>     1.0245     2.0268   480.0000 </r>
       <r>     1.1397     0.0000   480.0000 </r>
       <r>     1.2548     0.0000   480.0000 </r>
       <r>     1.3699     0.0000   480.0000 </r>
       <r>     1.4850     0.0000   480.0000 </r>
       <r>     1.6001     0.0000   480.0000 </r>
       <r>     1.7153     0.0000   480.0000 </r>
       <r>     1.8304     0.0000   480.0000 </r>
       <r>     1.9455     0.0000   480.0000 </r>
       <r>     2.0606     0.0000   480.0000 </r>
       <r>     2.1758     0.0000   480.0000 </r>
       <r>     2.2909     0.0000   480.0000 </r>
       <r>     2.4060     0.0000   480.0000 </r>
       <r>     2.5211     0.0000   480.0000 </r>
      </set>
     </set>
    </array>
   </total>
  </dos>
 </calculation>
 <structure name="finalpos" >
  <crystal>
   <varray name="basis" >
    <v>      29.62391185       0.02193785       0.00000000 </v>
    <v>     -14.79286622      25.66496512       0.00000000 </v>
    <v>       0.00000000       0.00000000      20.00000000 </v>
   </varray>
   <i name="volume">  15212.42376089 </i>
   <varray name="rec_basis" >
    <v>       0.03374211       0.01944840       0.00000000 </v>
    <v>      -0.00002884       0.03894700       0.00000000 </v>
    <v>       0.00000000       0.00000000       0.05000000 </v>
   </varray>
  </crystal>
  <varray name="positions" >
   <v>       0.36368369       0.72121222       0.49772181 </v>
   <v>       0.38692861       0.69016893       0.49750608 </v>
   <v>       0.35612064       0.63553013       0.49783170 </v>
   <v>       0.30189740       0.61234444       0.49716939 </v>
   <v>       0.27805133       0.64322208       0.49737538 </v>
   <v>       0.30903689       0.69744756       0.49715513 </v>
   <v>       0.38010719       0.60254122       0.50045485 </v>
   <v>       0.22112090       0.61934220       0.49949874 </v>
   <v>       0.39670960       0.77811029       0.50015085 </v>
   <v>       0.63325660       0.27856566       0.48971005 </v>
   <v>       0.61203761       0.31142803       0.48923118 </v>
   <v>       0.64461017       0.36592987       0.48931522 </v>
   <v>       0.69862263       0.38707388       0.48886942 </v>
   <v>       0.72055459       0.35443214       0.48933877 </v>
   <v>       0.68776792       0.30042610       0.48929520 </v>
   <v>       0.62296099       0.40086113       0.49283604 </v>
   <v>       0.77706792       0.37604737       0.49281351 </v>
   <v>       0.59841942       0.22207917       0.49347750 </v>
   <v>       0.41126375       0.86172557       0.51955074 </v>
   <v>       0.42377256       0.88871654       0.58035184 </v>
   <v>       0.45457076       0.94266444       0.57999849 </v>
   <v>       0.47456840       0.97234046       0.52119903 </v>
   <v>       0.51136717       0.02877375       0.51868005 </v>
   <v>       0.54890976       0.05546506       0.56858387 </v>
   <v>       0.58358595       0.10851256       0.56369024 </v>
   <v>       0.44912883       0.58796802       0.51993047 </v>
   <v>       0.46337900       0.57508950       0.58066848 </v>
   <v>       0.48647812       0.54416434       0.58012686 </v>
   <v>       0.49636554       0.52442240       0.52120677 </v>
   <v>       0.51616674       0.48768247       0.51846655 </v>
   <v>       0.50544816       0.45002128       0.56819092 </v>
   <v>       0.52407801       0.41549750       0.56315910 </v>
   <v>       0.13753568       0.55008269       0.51820264 </v>
   <v>       0.11058758       0.53574468       0.57903559 </v>
   <v>       0.05661853       0.51250185       0.57870580 </v>
   <v>       0.02690093       0.50258433       0.51989952 </v>
   <v>       0.97043134       0.48284517       0.51739082 </v>
   <v>       0.94367231       0.49391231       0.56703566 </v>
   <v>       0.89056779       0.47533791       0.56218814 </v>
   <v>       0.45869536       0.94438400       0.46015384 </v>
   <v>       0.42831024       0.89021450       0.45972721 </v>
   <v>       0.58051385       0.13705768       0.50939694 </v>
   <v>       0.54456222       0.11030704       0.45794118 </v>
   <v>       0.51102452       0.05666226       0.46144638 </v>
   <v>       0.47508795       0.02647303       0.40464730 </v>
   <v>       0.47512059       0.97507366       0.39579533 </v>
   <v>       0.48439822       0.54056219       0.46026553 </v>
   <v>       0.46068104       0.57107853       0.46002486 </v>
   <v>       0.55578040       0.41879305       0.50887150 </v>
   <v>       0.56483103       0.45482898       0.45755478 </v>
   <v>       0.54451328       0.48826043       0.46122936 </v>
   <v>       0.55015858       0.52431914       0.40458669 </v>
   <v>       0.49871966       0.52427810       0.39581065 </v>
   <v>       0.05481943       0.51446573       0.45884236 </v>
   <v>       0.10900259       0.53833011       0.45837841 </v>
   <v>       0.86204655       0.44331627       0.50821603 </v>
   <v>       0.88886037       0.43391702       0.45697374 </v>
   <v>       0.94256278       0.45422866       0.46041259 </v>
   <v>       0.97285740       0.44834541       0.40379949 </v>
   <v>       0.02402289       0.49983433       0.39456283 </v>
   <v>       0.27724471       0.57000750       0.49734858 </v>
   <v>       0.29135638       0.72215780       0.49732896 </v>
   <v>       0.42926192       0.70779058       0.49793782 </v>
   <v>       0.43806297       0.79410440       0.48630383 </v>
   <v>       0.20507235       0.64478195       0.48608359 </v>
   <v>       0.35493924       0.56117065       0.48660666 </v>
   <v>       0.72466890       0.42920402       0.48950338 </v>
   <v>       0.70387240       0.27434720       0.49023714 </v>
   <v>       0.56990342       0.29540140       0.49010383 </v>
   <v>       0.55642538       0.20807073       0.48653895 </v>
   <v>       0.79115018       0.34806464       0.48608959 </v>
   <v>       0.65089530       0.44282318       0.48571873 </v>
   <v>       0.55211576       0.03432673       0.61125493 </v>
   <v>       0.61304385       0.12890900       0.60201021 </v>
   <v>       0.40939860       0.86792240       0.62742209 </v>
   <v>       0.48101220       0.44658676       0.61084347 </v>
   <v>       0.51515244       0.38596894       0.60135330 </v>
   <v>       0.45679110       0.58923398       0.62783984 </v>
   <v>       0.96479174       0.51855513       0.60946607 </v>
   <v>       0.87010887       0.48454544       0.60030837 </v>
   <v>       0.13141463       0.54231102       0.62611596 </v>
   <v>       0.41643919       0.86942813       0.41215559 </v>
   <v>       0.54436397       0.13173373       0.41359681 </v>
   <v>       0.43504824       0.01793647       0.41567532 </v>
   <v>       0.48736179       0.04959868       0.35842154 </v>
   <v>       0.44895333       0.95169799       0.35507019 </v>
   <v>       0.51472977       0.98367598       0.38191200 </v>
   <v>       0.45187392       0.58315692       0.41251353 </v>
   <v>       0.58649492       0.45518409       0.41316532 </v>
   <v>       0.58152995       0.56434526       0.41574466 </v>
   <v>       0.56107167       0.51216027       0.35828814 </v>
   <v>       0.50144079       0.55051838       0.35518465 </v>
   <v>       0.46782440       0.48468564       0.38183556 </v>
   <v>       0.12977986       0.54707678       0.41080887 </v>
   <v>       0.86745042       0.41198787       0.41281188 </v>
   <v>       0.98175262       0.41712527       0.41523602 </v>
   <v>       0.94967481       0.43712499       0.35761308 </v>
   <v>       0.04743544       0.49701791       0.35385815 </v>
   <v>       0.01509165       0.53060705       0.38048588 </v>
   <v>       0.46182123       0.96775232       0.64620683 </v>
   <v>       0.37899325       0.80751658       0.51953420 </v>
   <v>       0.50399076       0.53640773       0.64631587 </v>
   <v>       0.42717670       0.62033159       0.51997406 </v>
   <v>       0.03155027       0.49486731       0.64494013 </v>
   <v>       0.19177385       0.57209823       0.51816471 </v>
   <v>       0.61521235       0.19066650       0.50718410 </v>
   <v>       0.57482942       0.38415135       0.50661109 </v>
   <v>       0.80839212       0.42426390       0.50609499 </v>
   <v>       0.47700477       0.95087300       0.69271636 </v>
   <v>       0.45064625       0.00268770       0.65115723 </v>
   <v>       0.47175078       0.52088380       0.69258536 </v>
   <v>       0.55003866       0.54749900       0.65147909 </v>
   <v>       0.04872891       0.52686935       0.69145337 </v>
   <v>       0.99630160       0.44897744       0.64992137 </v>
  </varray>
 </structure>
</modeling>
