<?xml version="1.0" encoding="ISO-8859-1"?>
<modeling>
 <generator>
  <i name="program" type="string">vasp </i>
  <i name="version" type="string">5.4.4.18Apr17-6-g9f103f2a35  </i>
  <i name="subversion" type="string">(build Jun 07 2020 16:50:00) complex            parallel </i>
  <i name="platform" type="string">LinuxIFC </i>
  <i name="date" type="string">2023 03 06 </i>
  <i name="time" type="string">20:50:35 </i>
 </generator>
 <incar>
  <i type="string" name="SYSTEM">Simulation for cell shape cell volume r</i>
  <i type="int" name="ISTART">     1</i>
  <i type="string" name="PREC">high</i>
  <i type="string" name="ALGO">48</i>
  <i type="int" name="ICHARG">    11</i>
  <i type="int" name="NELM">   200</i>
  <i type="int" name="IBRION">    -1</i>
  <i name="EDIFF">      0.00001000</i>
  <i name="EDIFFG">     -0.01000000</i>
  <i type="int" name="NSW">     0</i>
  <i type="int" name="ISIF">     2</i>
  <i name="ENCUT">    500.00000000</i>
  <i name="POTIM">      0.30000000</i>
  <i type="string" name="LREAL">A</i>
  <i type="int" name="ISMEAR">     0</i>
  <i name="SIGMA">      0.01000000</i>
  <i type="int" name="NWRITE">     0</i>
  <i type="logical" name="LWAVE"> F  </i>
  <i type="logical" name="LCHARG"> F  </i>
  <v type="int" name="KPOINT_BSE">    -1     0     0     0</v>
  <i type="int" name="NELM">   200</i>
  <i type="string" name="GGA">PE</i>
 </incar>
 <structure name="primitive_cell" >
  <crystal>
   <varray name="basis" >
    <v>      22.34319067       0.02441743       0.00000000 </v>
    <v>     -11.15065243      19.34415357       0.00000000 </v>
    <v>       0.00000000       0.00000000      20.00000000 </v>
   </varray>
   <i name="volume">   8649.64763535 </i>
   <varray name="rec_basis" >
    <v>       0.04472819       0.02578291       0.00000000 </v>
    <v>      -0.00005646       0.05166266       0.00000000 </v>
    <v>       0.00000000       0.00000000       0.05000000 </v>
   </varray>
  </crystal>
  <varray name="positions" >
   <v>       0.08770168      -0.45031818      -0.49745333 </v>
   <v>       0.04584995      -0.42608054      -0.46763112 </v>
   <v>       0.05597592       0.48044917       0.47774134 </v>
   <v>       0.16176141      -0.40647977      -0.49668265 </v>
   <v>       0.18265281      -0.35917775      -0.46590990 </v>
   <v>       0.20513207      -0.42010867       0.47323137 </v>
   <v>      -0.01574226       0.43649133       0.48434511 </v>
   <v>      -0.02584464      -0.47009990      -0.46084818 </v>
   <v>       0.09378803       0.45432874       0.44675728 </v>
   <v>       0.07165316      -0.35770594      -0.44566858 </v>
   <v>       0.14611808       0.48798217       0.44797592 </v>
   <v>       0.12370498      -0.32708539      -0.44683689 </v>
   <v>      -0.05758305       0.46064740      -0.48563304 </v>
   <v>       0.05238967      -0.35488296      -0.40025179 </v>
   <v>       0.07850028       0.40441136       0.45872853 </v>
   <v>       0.27610968      -0.37306509       0.47648213 </v>
   <v>      -0.04146157       0.36826834       0.46199315 </v>
   <v>      -0.06369109      -0.44408895      -0.42979112 </v>
   <v>      -0.02149214       0.36583154       0.41685141 </v>
   <v>      -0.04838811      -0.39410764      -0.44149197 </v>
   <v>       0.26984013      -0.27898498       0.47156054 </v>
   <v>      -0.13162995       0.41672496      -0.48616128 </v>
   <v>       0.30349196      -0.30114683       0.47580013 </v>
   <v>      -0.11602449      -0.47777801      -0.43090192 </v>
   <v>      -0.09354826       0.33783280       0.46230042 </v>
   <v>       0.32110220      -0.40000191       0.47619185 </v>
   <v>       0.29905716      -0.45578405       0.47229424 </v>
   <v>      -0.15254971       0.36938089       0.48311626 </v>
   <v>      -0.17500155       0.43022330      -0.45586703 </v>
   <v>       0.37526611      -0.25622892       0.47664850 </v>
   <v>       0.39295526      -0.35561055       0.47699860 </v>
   <v>       0.41973493      -0.28375525       0.47633371 </v>
   <v>      -0.24596748       0.38305453      -0.45891768 </v>
   <v>       0.39912972      -0.18519000       0.47351255 </v>
   <v>       0.37903313      -0.46322851      -0.46551595 </v>
   <v>      -0.23954472       0.28901385      -0.45509988 </v>
   <v>       0.36725549      -0.12553005       0.44704312 </v>
   <v>      -0.27328507       0.31112941      -0.45870966 </v>
   <v>       0.44012135      -0.37955446       0.47412016 </v>
   <v>      -0.26901780       0.46566510      -0.45384457 </v>
   <v>       0.34704390       0.44558019      -0.44697939 </v>
   <v>       0.42651320      -0.43664363      -0.49597668 </v>
   <v>      -0.29101117       0.40991360      -0.45803507 </v>
   <v>       0.47547267      -0.25012984       0.47250607 </v>
   <v>       0.45600151      -0.14194018      -0.49630634 </v>
   <v>       0.38628009      -0.07308724       0.44543697 </v>
   <v>       0.35183902      -0.05730359       0.45662116 </v>
   <v>       0.48213926      -0.16307223      -0.46538781 </v>
   <v>       0.37767019       0.42404144      -0.44607098 </v>
   <v>      -0.34506762       0.26616179      -0.45933504 </v>
   <v>       0.47051003      -0.46686164      -0.49660294 </v>
   <v>       0.48654370      -0.06777234      -0.49722722 </v>
   <v>       0.44977020      -0.03555556       0.47706900 </v>
   <v>       0.37457554       0.40139963      -0.40090938 </v>
   <v>      -0.36284831       0.36546351      -0.45878771 </v>
   <v>      -0.34865241       0.47335420       0.48449152 </v>
   <v>      -0.46777884      -0.34646645       0.44985635 </v>
   <v>       0.44615851       0.46677844      -0.46742714 </v>
   <v>      -0.31671780      -0.43561953       0.46618655 </v>
   <v>      -0.38957029       0.29363626      -0.45842344 </v>
   <v>      -0.36900542       0.19509804      -0.45660665 </v>
   <v>      -0.33709601       0.13559855      -0.43051198 </v>
   <v>      -0.42760108      -0.10467906      -0.44449708 </v>
   <v>       0.41409166       0.04284229       0.41497272 </v>
   <v>      -0.39631909       0.44656786      -0.48535257 </v>
   <v>      -0.41010921       0.38927355      -0.45578358 </v>
   <v>      -0.46003482      -0.42914433       0.47930160 </v>
   <v>      -0.43392171      -0.36501960       0.44886349 </v>
   <v>       0.47780313       0.03629841       0.48343202 </v>
   <v>      -0.44774275      -0.02626146      -0.46680890 </v>
   <v>      -0.32176434       0.06723821      -0.43992367 </v>
   <v>      -0.34738076      -0.41412981       0.46506736 </v>
   <v>       0.43591347       0.06252893       0.46035379 </v>
   <v>      -0.35614514       0.08314729      -0.42896189 </v>
   <v>      -0.44528545       0.25997688      -0.45440346 </v>
   <v>      -0.40592070      -0.05255060      -0.44376236 </v>
   <v>      -0.42596714       0.15199762      -0.48676023 </v>
   <v>       0.49016504       0.43890246      -0.46081986 </v>
   <v>      -0.34405250      -0.39137454       0.41992475 </v>
   <v>       0.41411137       0.34020895      -0.44307808 </v>
   <v>      -0.45217109       0.17329840       0.48264302 </v>
   <v>      -0.38417017      -0.33048429       0.46118142 </v>
   <v>      -0.38401315      -0.03297063      -0.39839697 </v>
   <v>       0.46392879       0.37456583      -0.43083632 </v>
   <v>      -0.44032644       0.47673067      -0.48472520 </v>
   <v>      -0.41966119       0.04561860      -0.46049071 </v>
   <v>      -0.45648960       0.07783138      -0.48609489 </v>
   <v>       0.45774692       0.11468673       0.46081205 </v>
   <v>      -0.41594497      -0.45687839       0.48618096 </v>
   <v>       0.49773267       0.35595463      -0.43190768 </v>
  </varray>
 </structure>
 <varray name="primitive_index" >
  <v type="int" >        1 </v>
  <v type="int" >        2 </v>
  <v type="int" >        4 </v>
  <v type="int" >        3 </v>
  <v type="int" >       39 </v>
  <v type="int" >       75 </v>
  <v type="int" >       35 </v>
  <v type="int" >       27 </v>
  <v type="int" >       74 </v>
  <v type="int" >       73 </v>
  <v type="int" >       40 </v>
  <v type="int" >       37 </v>
  <v type="int" >       34 </v>
  <v type="int" >       38 </v>
  <v type="int" >       41 </v>
  <v type="int" >        6 </v>
  <v type="int" >       90 </v>
  <v type="int" >       87 </v>
  <v type="int" >       71 </v>
  <v type="int" >       62 </v>
  <v type="int" >       43 </v>
  <v type="int" >       36 </v>
  <v type="int" >        5 </v>
  <v type="int" >       63 </v>
  <v type="int" >       70 </v>
  <v type="int" >        7 </v>
  <v type="int" >       42 </v>
  <v type="int" >       72 </v>
  <v type="int" >       83 </v>
  <v type="int" >        8 </v>
  <v type="int" >        9 </v>
  <v type="int" >       10 </v>
  <v type="int" >       19 </v>
  <v type="int" >       76 </v>
  <v type="int" >       49 </v>
  <v type="int" >       55 </v>
  <v type="int" >       52 </v>
  <v type="int" >       18 </v>
  <v type="int" >       77 </v>
  <v type="int" >       53 </v>
  <v type="int" >       47 </v>
  <v type="int" >       14 </v>
  <v type="int" >       20 </v>
  <v type="int" >       45 </v>
  <v type="int" >       11 </v>
  <v type="int" >       81 </v>
  <v type="int" >       44 </v>
  <v type="int" >       60 </v>
  <v type="int" >       79 </v>
  <v type="int" >       17 </v>
  <v type="int" >       12 </v>
  <v type="int" >       23 </v>
  <v type="int" >       16 </v>
  <v type="int" >       48 </v>
  <v type="int" >       21 </v>
  <v type="int" >       69 </v>
  <v type="int" >       67 </v>
  <v type="int" >       13 </v>
  <v type="int" >       65 </v>
  <v type="int" >       22 </v>
  <v type="int" >       82 </v>
  <v type="int" >       57 </v>
  <v type="int" >       58 </v>
  <v type="int" >       51 </v>
  <v type="int" >       33 </v>
  <v type="int" >       84 </v>
  <v type="int" >       32 </v>
  <v type="int" >       89 </v>
  <v type="int" >       15 </v>
  <v type="int" >       24 </v>
  <v type="int" >       56 </v>
  <v type="int" >       88 </v>
  <v type="int" >       80 </v>
  <v type="int" >       85 </v>
  <v type="int" >       54 </v>
  <v type="int" >       86 </v>
  <v type="int" >       29 </v>
  <v type="int" >       26 </v>
  <v type="int" >       66 </v>
  <v type="int" >       46 </v>
  <v type="int" >       64 </v>
  <v type="int" >       68 </v>
  <v type="int" >       59 </v>
  <v type="int" >       78 </v>
  <v type="int" >       30 </v>
  <v type="int" >       25 </v>
  <v type="int" >       28 </v>
  <v type="int" >       50 </v>
  <v type="int" >       31 </v>
  <v type="int" >       61 </v>
 </varray>
 <kpoints>
  <generation param="listgenerated">
   <i name="divisions" type="int">      20 </i>
   <v>       0.00000000       0.00000000       0.00000000 </v>
   <v>       0.50000000       0.00000000       0.00000000 </v>
   <v>       0.33333333       0.33333333       0.00000000 </v>
   <v>       0.00000000       0.00000000       0.00000000 </v>
  </generation>
  <varray name="kpointlist" >
   <v>       0.00000000       0.00000000       0.00000000 </v>
   <v>       0.02631579       0.00000000       0.00000000 </v>
   <v>       0.05263158       0.00000000       0.00000000 </v>
   <v>       0.07894737       0.00000000       0.00000000 </v>
   <v>       0.10526316       0.00000000       0.00000000 </v>
   <v>       0.13157895       0.00000000       0.00000000 </v>
   <v>       0.15789474       0.00000000       0.00000000 </v>
   <v>       0.18421053       0.00000000       0.00000000 </v>
   <v>       0.21052632       0.00000000       0.00000000 </v>
   <v>       0.23684211       0.00000000       0.00000000 </v>
   <v>       0.26315789       0.00000000       0.00000000 </v>
   <v>       0.28947368       0.00000000       0.00000000 </v>
   <v>       0.31578947       0.00000000       0.00000000 </v>
   <v>       0.34210526       0.00000000       0.00000000 </v>
   <v>       0.36842105       0.00000000       0.00000000 </v>
   <v>       0.39473684       0.00000000       0.00000000 </v>
   <v>       0.42105263       0.00000000       0.00000000 </v>
   <v>       0.44736842       0.00000000       0.00000000 </v>
   <v>       0.47368421       0.00000000       0.00000000 </v>
   <v>       0.50000000       0.00000000       0.00000000 </v>
   <v>       0.50000000       0.00000000       0.00000000 </v>
   <v>       0.49122807       0.01754386       0.00000000 </v>
   <v>       0.48245614       0.03508772       0.00000000 </v>
   <v>       0.47368421       0.05263158       0.00000000 </v>
   <v>       0.46491228       0.07017544       0.00000000 </v>
   <v>       0.45614035       0.08771930       0.00000000 </v>
   <v>       0.44736842       0.10526316       0.00000000 </v>
   <v>       0.43859649       0.12280702       0.00000000 </v>
   <v>       0.42982456       0.14035088       0.00000000 </v>
   <v>       0.42105263       0.15789474       0.00000000 </v>
   <v>       0.41228070       0.17543860       0.00000000 </v>
   <v>       0.40350877       0.19298246       0.00000000 </v>
   <v>       0.39473684       0.21052632       0.00000000 </v>
   <v>       0.38596491       0.22807018       0.00000000 </v>
   <v>       0.37719298       0.24561404       0.00000000 </v>
   <v>       0.36842105       0.26315789       0.00000000 </v>
   <v>       0.35964912       0.28070175       0.00000000 </v>
   <v>       0.35087719       0.29824561       0.00000000 </v>
   <v>       0.34210526       0.31578947       0.00000000 </v>
   <v>       0.33333333       0.33333333       0.00000000 </v>
   <v>       0.33333333       0.33333333       0.00000000 </v>
   <v>       0.31578947       0.31578947       0.00000000 </v>
   <v>       0.29824561       0.29824561       0.00000000 </v>
   <v>       0.28070175       0.28070175       0.00000000 </v>
   <v>       0.26315789       0.26315789       0.00000000 </v>
   <v>       0.24561404       0.24561404       0.00000000 </v>
   <v>       0.22807018       0.22807018       0.00000000 </v>
   <v>       0.21052632       0.21052632       0.00000000 </v>
   <v>       0.19298246       0.19298246       0.00000000 </v>
   <v>       0.17543860       0.17543860       0.00000000 </v>
   <v>       0.15789474       0.15789474       0.00000000 </v>
   <v>       0.14035088       0.14035088       0.00000000 </v>
   <v>       0.12280702       0.12280702       0.00000000 </v>
   <v>       0.10526316       0.10526316       0.00000000 </v>
   <v>       0.08771930       0.08771930       0.00000000 </v>
   <v>       0.07017544       0.07017544       0.00000000 </v>
   <v>       0.05263158       0.05263158       0.00000000 </v>
   <v>       0.03508772       0.03508772       0.00000000 </v>
   <v>       0.01754386       0.01754386       0.00000000 </v>
   <v>       0.00000000       0.00000000       0.00000000 </v>
  </varray>
  <varray name="weights" >
   <v>       0.01666667 </v>
   <v>       0.01666667 </v>
   <v>       0.01666667 </v>
   <v>       0.01666667 </v>
   <v>       0.01666667 </v>
   <v>       0.01666667 </v>
   <v>       0.01666667 </v>
   <v>       0.01666667 </v>
   <v>       0.01666667 </v>
   <v>       0.01666667 </v>
   <v>       0.01666667 </v>
   <v>       0.01666667 </v>
   <v>       0.01666667 </v>
   <v>       0.01666667 </v>
   <v>       0.01666667 </v>
   <v>       0.01666667 </v>
   <v>       0.01666667 </v>
   <v>       0.01666667 </v>
   <v>       0.01666667 </v>
   <v>       0.01666667 </v>
   <v>       0.01666667 </v>
   <v>       0.01666667 </v>
   <v>       0.01666667 </v>
   <v>       0.01666667 </v>
   <v>       0.01666667 </v>
   <v>       0.01666667 </v>
   <v>       0.01666667 </v>
   <v>       0.01666667 </v>
   <v>       0.01666667 </v>
   <v>       0.01666667 </v>
   <v>       0.01666667 </v>
   <v>       0.01666667 </v>
   <v>       0.01666667 </v>
   <v>       0.01666667 </v>
   <v>       0.01666667 </v>
   <v>       0.01666667 </v>
   <v>       0.01666667 </v>
   <v>       0.01666667 </v>
   <v>       0.01666667 </v>
   <v>       0.01666667 </v>
   <v>       0.01666667 </v>
   <v>       0.01666667 </v>
   <v>       0.01666667 </v>
   <v>       0.01666667 </v>
   <v>       0.01666667 </v>
   <v>       0.01666667 </v>
   <v>       0.01666667 </v>
   <v>       0.01666667 </v>
   <v>       0.01666667 </v>
   <v>       0.01666667 </v>
   <v>       0.01666667 </v>
   <v>       0.01666667 </v>
   <v>       0.01666667 </v>
   <v>       0.01666667 </v>
   <v>       0.01666667 </v>
   <v>       0.01666667 </v>
   <v>       0.01666667 </v>
   <v>       0.01666667 </v>
   <v>       0.01666667 </v>
   <v>       0.01666667 </v>
  </varray>
 </kpoints>
 <parameters>
  <separator name="general" >
   <i type="string" name="SYSTEM">Simulation for cell shape cell volume r</i>
   <i type="logical" name="LCOMPAT"> F  </i>
  </separator>
  <separator name="electronic" >
   <i type="string" name="PREC">high</i>
   <i name="ENMAX">    500.00000000</i>
   <i name="ENAUG">    644.87300000</i>
   <i name="EDIFF">      0.00001000</i>
   <i type="int" name="IALGO">    38</i>
   <i type="int" name="IWAVPR">    10</i>
   <i type="int" name="NBANDS">   192</i>
   <i name="NELECT">    270.00000000</i>
   <i type="int" name="TURBO">     0</i>
   <i type="int" name="IRESTART">     0</i>
   <i type="int" name="NREBOOT">     0</i>
   <i type="int" name="NMIN">     0</i>
   <i name="EREF">      0.00000000</i>
   <separator name="electronic smearing" >
    <i type="int" name="ISMEAR">     0</i>
    <i name="SIGMA">      0.01000000</i>
    <i name="KSPACING">      0.50000000</i>
    <i type="logical" name="KGAMMA"> T  </i>
   </separator>
   <separator name="electronic projectors" >
    <i type="logical" name="LREAL"> T  </i>
    <v name="ROPT">     -0.00040000     -0.00040000     -0.00040000</v>
    <i type="int" name="LMAXPAW">  -100</i>
    <i type="int" name="LMAXMIX">     2</i>
    <i type="logical" name="NLSPLINE"> F  </i>
   </separator>
   <separator name="electronic startup" >
    <i type="int" name="ISTART">     1</i>
    <i type="int" name="ICHARG">    11</i>
    <i type="int" name="INIWAV">     1</i>
   </separator>
   <separator name="electronic spin" >
    <i type="int" name="ISPIN">     1</i>
    <i type="logical" name="LNONCOLLINEAR"> F  </i>
    <v name="MAGMOM">      1.00000000      1.00000000      1.00000000      1.00000000      1.00000000      1.00000000      1.00000000      1.00000000      1.00000000      1.00000000      1.00000000      1.00000000      1.00000000      1.00000000      1.00000000      1.00000000      1.00000000      1.00000000      1.00000000      1.00000000
      1.00000000      1.00000000      1.00000000      1.00000000      1.00000000      1.00000000      1.00000000      1.00000000      1.00000000      1.00000000      1.00000000      1.00000000      1.00000000      1.00000000      1.00000000      1.00000000      1.00000000      1.00000000      1.00000000      1.00000000
      1.00000000      1.00000000      1.00000000      1.00000000      1.00000000      1.00000000      1.00000000      1.00000000      1.00000000      1.00000000      1.00000000      1.00000000      1.00000000      1.00000000      1.00000000      1.00000000      1.00000000      1.00000000      1.00000000      1.00000000
      1.00000000      1.00000000      1.00000000      1.00000000      1.00000000      1.00000000      1.00000000      1.00000000      1.00000000      1.00000000      1.00000000      1.00000000      1.00000000      1.00000000      1.00000000      1.00000000      1.00000000      1.00000000      1.00000000      1.00000000
      1.00000000      1.00000000      1.00000000      1.00000000      1.00000000      1.00000000      1.00000000      1.00000000      1.00000000      1.00000000</v>
    <i name="NUPDOWN">     -1.00000000</i>
    <i type="logical" name="LSORBIT"> F  </i>
    <v name="SAXIS">      0.00000000      0.00000000      1.00000000</v>
    <i type="logical" name="LSPIRAL"> F  </i>
    <v name="QSPIRAL">      0.00000000      0.00000000      0.00000000</v>
    <i type="logical" name="LZEROZ"> F  </i>
   </separator>
   <separator name="electronic exchange-correlation" >
    <i type="logical" name="LASPH"> F  </i>
    <i type="logical" name="LMETAGGA"> F  </i>
   </separator>
   <separator name="electronic convergence" >
    <i type="int" name="NELM">   200</i>
    <i type="int" name="NELMDL">     0</i>
    <i type="int" name="NELMIN">     2</i>
    <i name="ENINI">    500.00000000</i>
    <separator name="electronic convergence detail" >
     <i type="logical" name="LDIAG"> T  </i>
     <i type="logical" name="LSUBROT"> F  </i>
     <i name="WEIMIN">      0.00000000</i>
     <i name="EBREAK">      0.00000001</i>
     <i name="DEPER">      0.30000000</i>
     <i type="int" name="NRMM">     4</i>
     <i name="TIME">      0.40000000</i>
    </separator>
   </separator>
   <separator name="electronic mixer" >
    <i name="AMIX">      0.40000000</i>
    <i name="BMIX">      1.00000000</i>
    <i name="AMIN">      0.10000000</i>
    <i name="AMIX_MAG">      1.60000000</i>
    <i name="BMIX_MAG">      1.00000000</i>
    <separator name="electronic mixer details" >
     <i type="int" name="IMIX">     4</i>
     <i type="logical" name="MIXFIRST"> F  </i>
     <i type="int" name="MAXMIX">   -45</i>
     <i name="WC">    100.00000000</i>
     <i type="int" name="INIMIX">     1</i>
     <i type="int" name="MIXPRE">     1</i>
     <i type="int" name="MREMOVE">     5</i>
    </separator>
   </separator>
   <separator name="electronic dipolcorrection" >
    <i type="logical" name="LDIPOL"> F  </i>
    <i type="logical" name="LMONO"> F  </i>
    <i type="int" name="IDIPOL">     0</i>
    <i name="EPSILON">      1.00000000</i>
    <v name="DIPOL">   -100.00000000   -100.00000000   -100.00000000</v>
    <i name="EFIELD">      0.00000000</i>
   </separator>
  </separator>
  <separator name="grids" >
   <i type="int" name="NGX">   168</i>
   <i type="int" name="NGY">   168</i>
   <i type="int" name="NGZ">   150</i>
   <i type="int" name="NGXF">   250</i>
   <i type="int" name="NGYF">   250</i>
   <i type="int" name="NGZF">   224</i>
   <i type="logical" name="ADDGRID"> F  </i>
  </separator>
  <separator name="ionic" >
   <i type="int" name="NSW">     0</i>
   <i type="int" name="IBRION">    -1</i>
   <i type="int" name="MDALGO">     0</i>
   <i type="int" name="ISIF">     2</i>
   <i name="PSTRESS">      0.00000000</i>
   <i name="EDIFFG">     -0.01000000</i>
   <i type="int" name="NFREE">     0</i>
   <i name="POTIM">      0.30000000</i>
   <i name="SMASS">     -3.00000000</i>
   <i name="SCALEE">      1.00000000</i>
  </separator>
  <separator name="ionic md" >
   <i name="TEBEG">      0.00010000</i>
   <i name="TEEND">      0.00010000</i>
   <i type="int" name="NBLOCK">     1</i>
   <i type="int" name="KBLOCK">     1</i>
   <i type="int" name="NPACO">   256</i>
   <i name="APACO">     16.00000000</i>
  </separator>
  <separator name="symmetry" >
   <i type="int" name="ISYM">     2</i>
   <i name="SYMPREC">      0.00001000</i>
  </separator>
  <separator name="dos" >
   <i type="int" name="LORBIT">     0</i>
   <v name="RWIGS">     -1.00000000     -1.00000000     -1.00000000</v>
   <i type="int" name="NEDOS">   301</i>
   <i name="EMIN">     10.00000000</i>
   <i name="EMAX">    -10.00000000</i>
   <i name="EFERMI">      0.00000000</i>
  </separator>
  <separator name="writing" >
   <i type="int" name="NWRITE">     0</i>
   <i type="logical" name="LWAVE"> F  </i>
   <i type="logical" name="LDOWNSAMPLE"> F  </i>
   <i type="logical" name="LCHARG"> F  </i>
   <i type="logical" name="LPARD"> F  </i>
   <i type="logical" name="LVTOT"> F  </i>
   <i type="logical" name="LVHAR"> F  </i>
   <i type="logical" name="LELF"> F  </i>
   <i type="logical" name="LOPTICS"> F  </i>
   <v name="STM">      0.00000000      0.00000000      0.00000000      0.00000000      0.00000000      0.00000000      0.00000000</v>
  </separator>
  <separator name="performance" >
   <i type="int" name="NPAR">    16</i>
   <i type="int" name="NSIM">     4</i>
   <i type="int" name="NBLK">    -1</i>
   <i type="logical" name="LPLANE"> T  </i>
   <i type="logical" name="LSCALAPACK"> T  </i>
   <i type="logical" name="LSCAAWARE"> F  </i>
   <i type="logical" name="LSCALU"> F  </i>
   <i type="logical" name="LASYNC"> F  </i>
   <i type="logical" name="LORBITALREAL"> F  </i>
  </separator>
  <separator name="miscellaneous" >
   <i type="int" name="IDIOT">     3</i>
   <i type="int" name="ISPECIAL">     0</i>
   <i type="logical" name="LMUSIC"> F  </i>
   <v name="POMASS">     12.01100000      1.00000000     14.00100000</v>
   <v name="DARWINR">      0.00000000      0.00000000      0.00000000</v>
   <v name="DARWINV">      1.00000000      1.00000000      1.00000000</v>
   <i type="logical" name="LCORR"> T  </i>
  </separator>
  <i type="logical" name="GGA_COMPAT"> T  </i>
  <i type="logical" name="LBERRY"> F  </i>
  <i type="int" name="ICORELEVEL">     0</i>
  <i type="logical" name="LDAU"> F  </i>
  <i type="int" name="I_CONSTRAINED_M">     0</i>
  <separator name="electronic exchange-correlation" >
   <i type="string" name="GGA">PE</i>
   <i type="int" name="VOSKOWN">     0</i>
   <i type="logical" name="LHFCALC"> F  </i>
   <i type="string" name="PRECFOCK"></i>
   <i type="logical" name="LSYMGRAD"> F  </i>
   <i type="logical" name="LHFONE"> F  </i>
   <i type="logical" name="LRHFCALC"> F  </i>
   <i type="logical" name="LTHOMAS"> F  </i>
   <i type="logical" name="LMODELHF"> F  </i>
   <i name="ENCUT4O">     -1.00000000</i>
   <i type="int" name="EXXOEP">     0</i>
   <i type="int" name="FOURORBIT">     0</i>
   <i name="AEXX">      0.00000000</i>
   <i name="HFALPHA">      0.00000000</i>
   <i name="MCALPHA">      0.00000000</i>
   <i name="ALDAX">      1.00000000</i>
   <i name="AGGAX">      1.00000000</i>
   <i name="ALDAC">      1.00000000</i>
   <i name="AGGAC">      1.00000000</i>
   <i type="int" name="NKREDX">     1</i>
   <i type="int" name="NKREDY">     1</i>
   <i type="int" name="NKREDZ">     1</i>
   <i type="logical" name="SHIFTRED"> F  </i>
   <i type="logical" name="ODDONLY"> F  </i>
   <i type="logical" name="EVENONLY"> F  </i>
   <i type="int" name="LMAXFOCK">     0</i>
   <i type="int" name="NMAXFOCKAE">     0</i>
   <i type="logical" name="LFOCKAEDFT"> F  </i>
   <i name="HFSCREEN">      0.00000000</i>
   <i name="HFSCREENC">      0.00000000</i>
   <i type="int" name="NBANDSGWLOW">     0</i>
  </separator>
  <separator name="vdW DFT" >
   <i type="logical" name="LUSE_VDW"> F  </i>
   <i name="Zab_VDW">     -0.84910000</i>
   <i name="PARAM1">      0.12340000</i>
   <i name="PARAM2">      1.00000000</i>
   <i name="PARAM3">      0.00000000</i>
  </separator>
  <separator name="model GW" >
   <i type="int" name="MODEL_GW">     0</i>
   <i name="MODEL_EPS0">     57.66431757</i>
   <i name="MODEL_ALPHA">      1.00000000</i>
  </separator>
  <separator name="linear response parameters" >
   <i type="logical" name="LEPSILON"> F  </i>
   <i type="logical" name="LRPA"> F  </i>
   <i type="logical" name="LNABLA"> F  </i>
   <i type="logical" name="LVEL"> F  </i>
   <i type="int" name="KINTER">     0</i>
   <i name="CSHIFT">      0.10000000</i>
   <i name="OMEGAMAX">     -1.00000000</i>
   <i name="DEG_THRESHOLD">      0.00200000</i>
   <i name="RTIME">     -0.10000000</i>
   <i name="WPLASMAI">      0.00000000</i>
   <v name="DFIELD">      0.00000000      0.00000000      0.00000000</v>
   <v name="WPLASMA">      0.00000000      0.00000000      0.00000000      0.00000000      0.00000000      0.00000000      0.00000000      0.00000000      0.00000000</v>
  </separator>
  <separator name="orbital magnetization" >
   <i type="logical" name="NUCIND"> F  </i>
   <v name="MAGPOS">      0.00000000      0.00000000      0.00000000</v>
   <i type="logical" name="LNICSALL"> T  </i>
   <i type="logical" name="ORBITALMAG"> F  </i>
   <i type="logical" name="LMAGBLOCH"> F  </i>
   <i type="logical" name="LCHIMAG"> F  </i>
   <i type="logical" name="LGAUGE"> T  </i>
   <i type="int" name="MAGATOM">     0</i>
   <v name="MAGDIPOL">      0.00000000      0.00000000      0.00000000</v>
   <v name="AVECCONST">      0.00000000      0.00000000      0.00000000</v>
  </separator>
  <separator name="response functions" >
   <i type="logical" name="LADDER"> F  </i>
   <i type="logical" name="LRPAFORCE"> F  </i>
   <i type="logical" name="LFXC"> F  </i>
   <i type="logical" name="LHARTREE"> T  </i>
   <i type="int" name="IBSE">     0</i>
   <v type="int" name="KPOINT">    -1     0     0     0</v>
   <i type="logical" name="LTCTE"> F  </i>
   <i type="logical" name="LTETE"> F  </i>
   <i type="logical" name="LTRIPLET"> F  </i>
   <i type="logical" name="LFXCEPS"> F  </i>
   <i type="logical" name="LFXHEG"> F  </i>
   <i type="int" name="NATURALO">     2</i>
   <i type="logical" name="L2ORDER"> F  </i>
   <i type="logical" name="LMP2LT"> F  </i>
   <i type="logical" name="LUSEW"> F  </i>
   <i name="ENCUTGW">     -2.00000000</i>
   <i name="ENCUTGWSOFT">     -2.00000000</i>
   <i name="ENCUTLF">     -1.00000000</i>
   <i type="int" name="LMAXMP2">    -1</i>
   <i name="SCISSOR">      0.00000000</i>
   <i type="int" name="NOMEGA">     0</i>
   <i type="int" name="NOMEGAR">     0</i>
   <i type="int" name="NBANDSGW">    -1</i>
   <i type="int" name="NBANDSO">    -1</i>
   <i type="int" name="NBANDSV">    -1</i>
   <i type="int" name="NELM">   200</i>
   <i type="int" name="NELMHF">     1</i>
   <i type="int" name="DIM">     3</i>
   <i type="int" name="ANTIRES">     0</i>
   <i name="OMEGAMAX">    -30.00000000</i>
   <i name="OMEGAMIN">    -30.00000000</i>
   <i name="OMEGATL">   -200.00000000</i>
   <i type="int" name="OMEGAGRID">   140</i>
   <i name="CSHIFT">     -0.10000000</i>
   <i type="logical" name="SELFENERGY"> F  </i>
   <i type="logical" name="LSPECTRAL"> F  </i>
   <i type="logical" name="LSPECTRALGW"> F  </i>
   <i type="logical" name="LSINGLES"> F  </i>
   <i type="logical" name="LFERMIGW"> F  </i>
   <i type="logical" name="ODDONLYGW"> F  </i>
   <i type="logical" name="EVENONLYGW"> F  </i>
   <i type="int" name="NKREDLFX">     1</i>
   <i type="int" name="NKREDLFY">     1</i>
   <i type="int" name="NKREDLFZ">     1</i>
   <i type="int" name="MAXMEM">  2800</i>
   <i type="int" name="TELESCOPE">     0</i>
   <i type="int" name="TAUPAR">     1</i>
   <i type="int" name="OMEGAPAR">    -1</i>
   <i name="LAMBDA">      1.00000000</i>
  </separator>
  <separator name="External order field" >
   <i name="OFIELD_KAPPA">      0.00000000</i>
   <v name="OFIELD_K">      0.00000000      0.00000000      0.00000000</v>
   <i name="OFIELD_Q6_NEAR">      0.00000000</i>
   <i name="OFIELD_Q6_FAR">      0.00000000</i>
   <i name="OFIELD_A">      0.00000000</i>
  </separator>
  <separator name="solvation model" >
   <i type="logical" name="LSOL"> F  </i>
  </separator>
 </parameters>
 <atominfo>
  <atoms>      90 </atoms>
  <types>       3 </types>
  <array name="atoms" >
   <dimension dim="1">ion</dimension>
   <field type="string">element</field>
   <field type="int">atomtype</field>
   <set>
    <rc><c>C </c><c>   1</c></rc>
    <rc><c>C </c><c>   1</c></rc>
    <rc><c>C </c><c>   1</c></rc>
    <rc><c>C </c><c>   1</c></rc>
    <rc><c>C </c><c>   1</c></rc>
    <rc><c>C </c><c>   1</c></rc>
    <rc><c>C </c><c>   1</c></rc>
    <rc><c>C </c><c>   1</c></rc>
    <rc><c>C </c><c>   1</c></rc>
    <rc><c>C </c><c>   1</c></rc>
    <rc><c>C </c><c>   1</c></rc>
    <rc><c>C </c><c>   1</c></rc>
    <rc><c>C </c><c>   1</c></rc>
    <rc><c>C </c><c>   1</c></rc>
    <rc><c>C </c><c>   1</c></rc>
    <rc><c>C </c><c>   1</c></rc>
    <rc><c>C </c><c>   1</c></rc>
    <rc><c>C </c><c>   1</c></rc>
    <rc><c>C </c><c>   1</c></rc>
    <rc><c>C </c><c>   1</c></rc>
    <rc><c>C </c><c>   1</c></rc>
    <rc><c>C </c><c>   1</c></rc>
    <rc><c>C </c><c>   1</c></rc>
    <rc><c>C </c><c>   1</c></rc>
    <rc><c>C </c><c>   1</c></rc>
    <rc><c>C </c><c>   1</c></rc>
    <rc><c>C </c><c>   1</c></rc>
    <rc><c>C </c><c>   1</c></rc>
    <rc><c>C </c><c>   1</c></rc>
    <rc><c>C </c><c>   1</c></rc>
    <rc><c>C </c><c>   1</c></rc>
    <rc><c>C </c><c>   1</c></rc>
    <rc><c>C </c><c>   1</c></rc>
    <rc><c>C </c><c>   1</c></rc>
    <rc><c>C </c><c>   1</c></rc>
    <rc><c>C </c><c>   1</c></rc>
    <rc><c>H </c><c>   2</c></rc>
    <rc><c>H </c><c>   2</c></rc>
    <rc><c>H </c><c>   2</c></rc>
    <rc><c>H </c><c>   2</c></rc>
    <rc><c>H </c><c>   2</c></rc>
    <rc><c>H </c><c>   2</c></rc>
    <rc><c>H </c><c>   2</c></rc>
    <rc><c>H </c><c>   2</c></rc>
    <rc><c>H </c><c>   2</c></rc>
    <rc><c>H </c><c>   2</c></rc>
    <rc><c>H </c><c>   2</c></rc>
    <rc><c>H </c><c>   2</c></rc>
    <rc><c>H </c><c>   2</c></rc>
    <rc><c>H </c><c>   2</c></rc>
    <rc><c>H </c><c>   2</c></rc>
    <rc><c>H </c><c>   2</c></rc>
    <rc><c>H </c><c>   2</c></rc>
    <rc><c>H </c><c>   2</c></rc>
    <rc><c>H </c><c>   2</c></rc>
    <rc><c>H </c><c>   2</c></rc>
    <rc><c>H </c><c>   2</c></rc>
    <rc><c>H </c><c>   2</c></rc>
    <rc><c>H </c><c>   2</c></rc>
    <rc><c>H </c><c>   2</c></rc>
    <rc><c>H </c><c>   2</c></rc>
    <rc><c>H </c><c>   2</c></rc>
    <rc><c>H </c><c>   2</c></rc>
    <rc><c>H </c><c>   2</c></rc>
    <rc><c>H </c><c>   2</c></rc>
    <rc><c>H </c><c>   2</c></rc>
    <rc><c>H </c><c>   2</c></rc>
    <rc><c>H </c><c>   2</c></rc>
    <rc><c>H </c><c>   2</c></rc>
    <rc><c>H </c><c>   2</c></rc>
    <rc><c>H </c><c>   2</c></rc>
    <rc><c>H </c><c>   2</c></rc>
    <rc><c>N </c><c>   3</c></rc>
    <rc><c>N </c><c>   3</c></rc>
    <rc><c>N </c><c>   3</c></rc>
    <rc><c>N </c><c>   3</c></rc>
    <rc><c>N </c><c>   3</c></rc>
    <rc><c>N </c><c>   3</c></rc>
    <rc><c>N </c><c>   3</c></rc>
    <rc><c>N </c><c>   3</c></rc>
    <rc><c>N </c><c>   3</c></rc>
    <rc><c>N </c><c>   3</c></rc>
    <rc><c>N </c><c>   3</c></rc>
    <rc><c>N </c><c>   3</c></rc>
    <rc><c>N </c><c>   3</c></rc>
    <rc><c>N </c><c>   3</c></rc>
    <rc><c>N </c><c>   3</c></rc>
    <rc><c>N </c><c>   3</c></rc>
    <rc><c>N </c><c>   3</c></rc>
    <rc><c>N </c><c>   3</c></rc>
   </set>
  </array>
  <array name="atomtypes" >
   <dimension dim="1">type</dimension>
   <field type="int">atomspertype</field>
   <field type="string">element</field>
   <field>mass</field>
   <field>valence</field>
   <field type="string">pseudopotential</field>
   <set>
    <rc><c>  36</c><c>C </c><c>     12.01100000</c><c>      4.00000000</c><c>  PAW_PBE C 08Apr2002                   </c></rc>
    <rc><c>  36</c><c>H </c><c>      1.00000000</c><c>      1.00000000</c><c>  PAW_PBE H 15Jun2001                   </c></rc>
    <rc><c>  18</c><c>N </c><c>     14.00100000</c><c>      5.00000000</c><c>  PAW_PBE N 08Apr2002                   </c></rc>
   </set>
  </array>
 </atominfo>
 <structure name="initialpos" >
  <crystal>
   <varray name="basis" >
    <v>      22.34319067       0.02441743       0.00000000 </v>
    <v>     -11.15065243      19.34415357       0.00000000 </v>
    <v>       0.00000000       0.00000000      20.00000000 </v>
   </varray>
   <i name="volume">   8649.64763535 </i>
   <varray name="rec_basis" >
    <v>       0.04472819       0.02578291       0.00000000 </v>
    <v>      -0.00005646       0.05166266       0.00000000 </v>
    <v>       0.00000000       0.00000000       0.05000000 </v>
   </varray>
  </crystal>
  <varray name="positions" >
   <v>       0.08770168       0.54968182       0.50254667 </v>
   <v>       0.04584995       0.57391946       0.53236888 </v>
   <v>       0.16176141       0.59352023       0.50331735 </v>
   <v>       0.05597592       0.48044917       0.47774134 </v>
   <v>       0.30349196       0.69885317       0.47580013 </v>
   <v>       0.27610968       0.62693491       0.47648213 </v>
   <v>       0.32110220       0.59999809       0.47619185 </v>
   <v>       0.37526611       0.74377108       0.47664850 </v>
   <v>       0.39295526       0.64438945       0.47699860 </v>
   <v>       0.41973493       0.71624475       0.47633371 </v>
   <v>       0.45600151       0.85805982       0.50369366 </v>
   <v>       0.47051003       0.53313836       0.50339706 </v>
   <v>       0.44615851       0.46677844       0.53257286 </v>
   <v>       0.42651320       0.56335637       0.50402332 </v>
   <v>       0.47780313       0.03629841       0.48343202 </v>
   <v>       0.44977020       0.96444444       0.47706900 </v>
   <v>       0.65493238       0.26616179       0.54066496 </v>
   <v>       0.72671493       0.31112941       0.54129034 </v>
   <v>       0.75403252       0.38305453       0.54108232 </v>
   <v>       0.70898883       0.40991360       0.54196493 </v>
   <v>       0.63715169       0.36546351       0.54121229 </v>
   <v>       0.61042971       0.29363626       0.54157656 </v>
   <v>       0.48654370       0.93222766       0.50277278 </v>
   <v>       0.55225725       0.97373854       0.53319110 </v>
   <v>       0.58033881       0.04561860       0.53950929 </v>
   <v>       0.49016504       0.43890246       0.53918014 </v>
   <v>       0.97415536       0.52990010       0.53915182 </v>
   <v>       0.54351040       0.07783138       0.51390511 </v>
   <v>       0.57403286       0.15199762       0.51323977 </v>
   <v>       0.55967356       0.47673067       0.51527480 </v>
   <v>       0.58405503       0.54312161       0.48618096 </v>
   <v>       0.53996518       0.57085567       0.47930160 </v>
   <v>       0.60368091       0.44656786       0.51464743 </v>
   <v>       0.94241695       0.46064740       0.51436696 </v>
   <v>       0.98425774       0.43649133       0.48434511 </v>
   <v>       0.86837005       0.41672496       0.51383872 </v>
   <v>       0.12370498       0.67291461       0.55316311 </v>
   <v>       0.05238967       0.64511704       0.59974821 </v>
   <v>       0.18265281       0.64082225       0.53409010 </v>
   <v>       0.14611808       0.48798217       0.44797592 </v>
   <v>       0.07850028       0.40441136       0.45872853 </v>
   <v>       0.29905716       0.54421595       0.47229424 </v>
   <v>       0.26984013       0.72101502       0.47156054 </v>
   <v>       0.35183902       0.94269641       0.45662116 </v>
   <v>       0.47547267       0.74987016       0.47250607 </v>
   <v>       0.41411137       0.34020895       0.55692192 </v>
   <v>       0.34704390       0.44558019       0.55302061 </v>
   <v>       0.37457554       0.40139963       0.59909062 </v>
   <v>       0.37903313       0.53677149       0.53448405 </v>
   <v>       0.45774692       0.11468673       0.46081205 </v>
   <v>       0.41409166       0.04284229       0.41497272 </v>
   <v>       0.36725549       0.87446995       0.44704312 </v>
   <v>       0.73098220       0.46566510       0.54615543 </v>
   <v>       0.55471455       0.25997688       0.54559654 </v>
   <v>       0.76045528       0.28901385       0.54490012 </v>
   <v>       0.67823566       0.06723821       0.56007633 </v>
   <v>       0.66290399       0.13559855       0.56948802 </v>
   <v>       0.57239892       0.89532094       0.55550292 </v>
   <v>       0.61598685       0.96702937       0.60160303 </v>
   <v>       0.48213926       0.83692777       0.53461219 </v>
   <v>       0.49773267       0.35595463       0.56809232 </v>
   <v>       0.95161189       0.60589236       0.55850803 </v>
   <v>       0.88397551       0.52222199       0.56909808 </v>
   <v>       0.54782891       0.17329840       0.48264302 </v>
   <v>       0.68328220       0.56438047       0.46618655 </v>
   <v>       0.65594750       0.60862546       0.41992475 </v>
   <v>       0.53222116       0.65353355       0.44985635 </v>
   <v>       0.61582983       0.66951571       0.46118142 </v>
   <v>       0.65134759       0.47335420       0.48449152 </v>
   <v>       0.90645174       0.33783280       0.46230042 </v>
   <v>       0.97850786       0.36583154       0.41685141 </v>
   <v>       0.84745029       0.36938089       0.48311626 </v>
   <v>       0.07165316       0.64229406       0.55433142 </v>
   <v>       0.09378803       0.45432874       0.44675728 </v>
   <v>       0.20513207       0.57989133       0.47323137 </v>
   <v>       0.39912972       0.81481000       0.47351255 </v>
   <v>       0.44012135       0.62044554       0.47412016 </v>
   <v>       0.46392879       0.37456583       0.56916368 </v>
   <v>       0.37767019       0.42404144       0.55392902 </v>
   <v>       0.43591347       0.06252893       0.46035379 </v>
   <v>       0.38628009       0.92691276       0.44543697 </v>
   <v>       0.63099458       0.19509804       0.54339335 </v>
   <v>       0.82499845       0.43022330       0.54413297 </v>
   <v>       0.58989079       0.38927355       0.54421642 </v>
   <v>       0.64385486       0.08314729       0.57103811 </v>
   <v>       0.59407930       0.94744940       0.55623764 </v>
   <v>       0.93630891       0.55591105       0.57020888 </v>
   <v>       0.65261924       0.58587019       0.46506736 </v>
   <v>       0.56607829       0.63498040       0.44886349 </v>
   <v>       0.95853843       0.36826834       0.46199315 </v>
  </varray>
 </structure>
 <calculation>
  <scstep>
   <time name="dav">  136.43  137.68</time>
   <time name="total">  136.65  137.90</time>
   <energy>
    <i name="alphaZ">     37.92352872 </i>
    <i name="ewald">  29972.43401865 </i>
    <i name="hartreedc"> -38654.88852004 </i>
    <i name="XCdc">    964.93976726 </i>
    <i name="pawpsdc">  25170.59231201 </i>
    <i name="pawaedc"> -25222.29573247 </i>
    <i name="eentropy">     -0.00000000 </i>
    <i name="bandstr">  -3381.65096218 </i>
    <i name="atom">  10508.48194610 </i>
    <i name="e_fr_energy">   -604.46364195 </i>
    <i name="e_wo_entrp">   -604.46364195 </i>
    <i name="e_0_energy">   -604.46364195 </i>
   </energy>
  </scstep>
  <scstep>
   <time name="dav">  147.13  148.43</time>
   <time name="total">  147.14  148.44</time>
   <energy>
    <i name="e_fr_energy">   -605.09401674 </i>
    <i name="e_wo_entrp">   -605.09401674 </i>
    <i name="e_0_energy">   -605.09401674 </i>
   </energy>
  </scstep>
  <scstep>
   <time name="dav">  163.15  164.61</time>
   <time name="total">  163.16  164.62</time>
   <energy>
    <i name="e_fr_energy">   -605.11116622 </i>
    <i name="e_wo_entrp">   -605.11116622 </i>
    <i name="e_0_energy">   -605.11116622 </i>
   </energy>
  </scstep>
  <scstep>
   <time name="dav">  145.81  147.16</time>
   <time name="total">  145.82  147.16</time>
   <energy>
    <i name="e_fr_energy">   -605.11155715 </i>
    <i name="e_wo_entrp">   -605.11155715 </i>
    <i name="e_0_energy">   -605.11155715 </i>
   </energy>
  </scstep>
  <scstep>
   <time name="dav">  145.49  146.77</time>
   <time name="total">  145.50  146.78</time>
   <energy>
    <i name="e_fr_energy">   -605.11157696 </i>
    <i name="e_wo_entrp">   -605.11157696 </i>
    <i name="e_0_energy">   -605.11157696 </i>
   </energy>
  </scstep>
  <scstep>
   <time name="dav">  119.62  120.83</time>
   <time name="total">  119.64  120.84</time>
   <energy>
    <i name="alphaZ">     37.92352872 </i>
    <i name="ewald">  29972.43401865 </i>
    <i name="hartreedc"> -38654.88852004 </i>
    <i name="XCdc">    964.93976726 </i>
    <i name="pawpsdc">  25170.59231201 </i>
    <i name="pawaedc"> -25222.29573247 </i>
    <i name="eentropy">     -0.00000000 </i>
    <i name="bandstr">  -3382.29889800 </i>
    <i name="atom">  10508.48194610 </i>
    <i name="e_fr_energy">   -605.11157777 </i>
    <i name="e_wo_entrp">   -605.11157777 </i>
    <i name="e_0_energy">   -605.11157777 </i>
   </energy>
  </scstep>
  <structure>
   <crystal>
    <varray name="basis" >
     <v>      22.34319067       0.02441743       0.00000000 </v>
     <v>     -11.15065243      19.34415357       0.00000000 </v>
     <v>       0.00000000       0.00000000      20.00000000 </v>
    </varray>
    <i name="volume">   8649.64763535 </i>
    <varray name="rec_basis" >
     <v>       0.04472819       0.02578291       0.00000000 </v>
     <v>      -0.00005646       0.05166266       0.00000000 </v>
     <v>       0.00000000       0.00000000       0.05000000 </v>
    </varray>
   </crystal>
   <varray name="positions" >
    <v>       0.08770168       0.54968182       0.50254667 </v>
    <v>       0.04584995       0.57391946       0.53236888 </v>
    <v>       0.16176141       0.59352023       0.50331735 </v>
    <v>       0.05597592       0.48044917       0.47774134 </v>
    <v>       0.30349196       0.69885317       0.47580013 </v>
    <v>       0.27610968       0.62693491       0.47648213 </v>
    <v>       0.32110220       0.59999809       0.47619185 </v>
    <v>       0.37526611       0.74377108       0.47664850 </v>
    <v>       0.39295526       0.64438945       0.47699860 </v>
    <v>       0.41973493       0.71624475       0.47633371 </v>
    <v>       0.45600151       0.85805982       0.50369366 </v>
    <v>       0.47051003       0.53313836       0.50339706 </v>
    <v>       0.44615851       0.46677844       0.53257286 </v>
    <v>       0.42651320       0.56335637       0.50402332 </v>
    <v>       0.47780313       0.03629841       0.48343202 </v>
    <v>       0.44977020       0.96444444       0.47706900 </v>
    <v>       0.65493238       0.26616179       0.54066496 </v>
    <v>       0.72671493       0.31112941       0.54129034 </v>
    <v>       0.75403252       0.38305453       0.54108232 </v>
    <v>       0.70898883       0.40991360       0.54196493 </v>
    <v>       0.63715169       0.36546351       0.54121229 </v>
    <v>       0.61042971       0.29363626       0.54157656 </v>
    <v>       0.48654370       0.93222766       0.50277278 </v>
    <v>       0.55225725       0.97373854       0.53319110 </v>
    <v>       0.58033881       0.04561860       0.53950929 </v>
    <v>       0.49016504       0.43890246       0.53918014 </v>
    <v>       0.97415536       0.52990010       0.53915182 </v>
    <v>       0.54351040       0.07783138       0.51390511 </v>
    <v>       0.57403286       0.15199762       0.51323977 </v>
    <v>       0.55967356       0.47673067       0.51527480 </v>
    <v>       0.58405503       0.54312161       0.48618096 </v>
    <v>       0.53996518       0.57085567       0.47930160 </v>
    <v>       0.60368091       0.44656786       0.51464743 </v>
    <v>       0.94241695       0.46064740       0.51436696 </v>
    <v>       0.98425774       0.43649133       0.48434511 </v>
    <v>       0.86837005       0.41672496       0.51383872 </v>
    <v>       0.12370498       0.67291461       0.55316311 </v>
    <v>       0.05238967       0.64511704       0.59974821 </v>
    <v>       0.18265281       0.64082225       0.53409010 </v>
    <v>       0.14611808       0.48798217       0.44797592 </v>
    <v>       0.07850028       0.40441136       0.45872853 </v>
    <v>       0.29905716       0.54421595       0.47229424 </v>
    <v>       0.26984013       0.72101502       0.47156054 </v>
    <v>       0.35183902       0.94269641       0.45662116 </v>
    <v>       0.47547267       0.74987016       0.47250607 </v>
    <v>       0.41411137       0.34020895       0.55692192 </v>
    <v>       0.34704390       0.44558019       0.55302061 </v>
    <v>       0.37457554       0.40139963       0.59909062 </v>
    <v>       0.37903313       0.53677149       0.53448405 </v>
    <v>       0.45774692       0.11468673       0.46081205 </v>
    <v>       0.41409166       0.04284229       0.41497272 </v>
    <v>       0.36725549       0.87446995       0.44704312 </v>
    <v>       0.73098220       0.46566510       0.54615543 </v>
    <v>       0.55471455       0.25997688       0.54559654 </v>
    <v>       0.76045528       0.28901385       0.54490012 </v>
    <v>       0.67823566       0.06723821       0.56007633 </v>
    <v>       0.66290399       0.13559855       0.56948802 </v>
    <v>       0.57239892       0.89532094       0.55550292 </v>
    <v>       0.61598685       0.96702937       0.60160303 </v>
    <v>       0.48213926       0.83692777       0.53461219 </v>
    <v>       0.49773267       0.35595463       0.56809232 </v>
    <v>       0.95161189       0.60589236       0.55850803 </v>
    <v>       0.88397551       0.52222199       0.56909808 </v>
    <v>       0.54782891       0.17329840       0.48264302 </v>
    <v>       0.68328220       0.56438047       0.46618655 </v>
    <v>       0.65594750       0.60862546       0.41992475 </v>
    <v>       0.53222116       0.65353355       0.44985635 </v>
    <v>       0.61582983       0.66951571       0.46118142 </v>
    <v>       0.65134759       0.47335420       0.48449152 </v>
    <v>       0.90645174       0.33783280       0.46230042 </v>
    <v>       0.97850786       0.36583154       0.41685141 </v>
    <v>       0.84745029       0.36938089       0.48311626 </v>
    <v>       0.07165316       0.64229406       0.55433142 </v>
    <v>       0.09378803       0.45432874       0.44675728 </v>
    <v>       0.20513207       0.57989133       0.47323137 </v>
    <v>       0.39912972       0.81481000       0.47351255 </v>
    <v>       0.44012135       0.62044554       0.47412016 </v>
    <v>       0.46392879       0.37456583       0.56916368 </v>
    <v>       0.37767019       0.42404144       0.55392902 </v>
    <v>       0.43591347       0.06252893       0.46035379 </v>
    <v>       0.38628009       0.92691276       0.44543697 </v>
    <v>       0.63099458       0.19509804       0.54339335 </v>
    <v>       0.82499845       0.43022330       0.54413297 </v>
    <v>       0.58989079       0.38927355       0.54421642 </v>
    <v>       0.64385486       0.08314729       0.57103811 </v>
    <v>       0.59407930       0.94744940       0.55623764 </v>
    <v>       0.93630891       0.55591105       0.57020888 </v>
    <v>       0.65261924       0.58587019       0.46506736 </v>
    <v>       0.56607829       0.63498040       0.44886349 </v>
    <v>       0.95853843       0.36826834       0.46199315 </v>
   </varray>
  </structure>
  <varray name="forces" >
   <v>       0.00063990      -0.00000434      -0.00055520 </v>
   <v>       0.00453225       0.00430245      -0.00025546 </v>
   <v>       0.00168476      -0.00575127      -0.00314841 </v>
   <v>      -0.00205422       0.00400245       0.00019463 </v>
   <v>      -0.00262804      -0.00578032      -0.00136119 </v>
   <v>       0.00053900      -0.00131117      -0.00177131 </v>
   <v>      -0.00044571      -0.00121496      -0.00268542 </v>
   <v>       0.00027213      -0.00128342      -0.00122236 </v>
   <v>      -0.00105696      -0.00054103      -0.00275495 </v>
   <v>       0.00075551       0.00038900      -0.00106894 </v>
   <v>       0.00123048       0.00026711       0.00246296 </v>
   <v>       0.00120763      -0.00147801      -0.00219264 </v>
   <v>       0.00177326      -0.00344607       0.00075452 </v>
   <v>      -0.00279526       0.00056115      -0.00342169 </v>
   <v>       0.00166973       0.00539231       0.00104098 </v>
   <v>      -0.00170233      -0.00190402      -0.00073534 </v>
   <v>      -0.00352816       0.00203806       0.00343767 </v>
   <v>       0.00337269       0.00290200       0.00356262 </v>
   <v>       0.00334851      -0.00007324       0.00147657 </v>
   <v>      -0.00146941      -0.00024541       0.00116944 </v>
   <v>      -0.00065761       0.00004637       0.00290534 </v>
   <v>       0.00288891      -0.00190614       0.00148803 </v>
   <v>       0.00068898      -0.00204421       0.00146413 </v>
   <v>      -0.00275517       0.00232536       0.00066070 </v>
   <v>       0.00036597      -0.00069555       0.00129473 </v>
   <v>      -0.00392716      -0.00053911      -0.00004485 </v>
   <v>      -0.00238661      -0.00018879       0.00345034 </v>
   <v>      -0.00028012      -0.00196410      -0.00002666 </v>
   <v>      -0.00261097       0.00235896      -0.00221223 </v>
   <v>      -0.00358836      -0.00058678       0.00210187 </v>
   <v>       0.00449577       0.00204587      -0.00172881 </v>
   <v>      -0.00114944       0.00367107      -0.00277517 </v>
   <v>       0.00217227      -0.00165878       0.00306509 </v>
   <v>       0.00212412      -0.00272240       0.00050623 </v>
   <v>       0.00224492       0.00040640      -0.00241831 </v>
   <v>      -0.00244610      -0.00147680       0.00169694 </v>
   <v>      -0.00093135      -0.00021445       0.00125476 </v>
   <v>       0.00241239      -0.00014768      -0.00049176 </v>
   <v>       0.00095085       0.00263601       0.00172047 </v>
   <v>       0.00147345       0.00198412      -0.00266540 </v>
   <v>       0.00193113      -0.00240362      -0.00403247 </v>
   <v>       0.00130604       0.00013721      -0.00211399 </v>
   <v>      -0.00270811      -0.00122209      -0.00039609 </v>
   <v>      -0.00104438      -0.00115744      -0.00378504 </v>
   <v>       0.00086406       0.00131749      -0.00244971 </v>
   <v>      -0.00167578      -0.00261666      -0.00017957 </v>
   <v>      -0.00104762       0.00039173      -0.00035700 </v>
   <v>      -0.00043184      -0.00033446      -0.00042391 </v>
   <v>      -0.00074587       0.00082176      -0.00210584 </v>
   <v>      -0.00096816       0.00212195      -0.00090837 </v>
   <v>       0.00189452       0.00113324      -0.00277041 </v>
   <v>       0.00038467      -0.00109574      -0.00138867 </v>
   <v>       0.00157712       0.00298240       0.00334739 </v>
   <v>      -0.00008583      -0.00240996      -0.00052443 </v>
   <v>       0.00029052       0.00004928       0.00545324 </v>
   <v>      -0.00059293      -0.00117764       0.00186672 </v>
   <v>      -0.00014464       0.00078967      -0.00111296 </v>
   <v>      -0.00143069      -0.00315894       0.00446121 </v>
   <v>      -0.00411067       0.00007652       0.00868783 </v>
   <v>      -0.00145164      -0.00199063      -0.00109990 </v>
   <v>      -0.00072318      -0.00102507       0.00117827 </v>
   <v>       0.00455306      -0.00360111       0.00240500 </v>
   <v>       0.00517658       0.00264713       0.00398052 </v>
   <v>       0.00157090       0.00027734       0.00167178 </v>
   <v>      -0.00121804      -0.00043577      -0.00151629 </v>
   <v>       0.00054501      -0.00039376       0.00038785 </v>
   <v>       0.00206856       0.00123267      -0.00183037 </v>
   <v>       0.00030249      -0.00023307      -0.00045964 </v>
   <v>       0.00089553      -0.00052180      -0.00075530 </v>
   <v>      -0.00203718       0.00045359       0.00164872 </v>
   <v>      -0.00226005      -0.00106481       0.00123942 </v>
   <v>      -0.00016372      -0.00109468       0.00203605 </v>
   <v>      -0.00060386       0.00272766       0.00128096 </v>
   <v>       0.00235003       0.00051304      -0.00355348 </v>
   <v>       0.00304619       0.00235357      -0.00274944 </v>
   <v>      -0.00227199       0.00479819      -0.00164420 </v>
   <v>       0.00061450       0.00314764      -0.00645562 </v>
   <v>      -0.00367939       0.00137636      -0.00190560 </v>
   <v>      -0.00099924       0.00052402       0.00021302 </v>
   <v>      -0.00092250       0.00125068      -0.00075281 </v>
   <v>      -0.00179701      -0.00200995       0.00044867 </v>
   <v>      -0.00017879      -0.00287759      -0.00030781 </v>
   <v>       0.00110615      -0.00115545       0.00117081 </v>
   <v>       0.00045143       0.00082355       0.00436559 </v>
   <v>       0.00210591       0.00127407       0.00114585 </v>
   <v>      -0.00018155      -0.00224749       0.00259514 </v>
   <v>      -0.00383355       0.00384466       0.00225832 </v>
   <v>       0.00112617      -0.00088690      -0.00250797 </v>
   <v>      -0.00015291       0.00248835      -0.00112754 </v>
   <v>      -0.00112997      -0.00258977      -0.00479982 </v>
  </varray>
  <varray name="stress" >
   <v>      -0.00230175       0.00135216      -0.01272608 </v>
   <v>       0.00135216      -0.00307130      -0.00438965 </v>
   <v>      -0.01272608      -0.00438966      -0.22232735 </v>
  </varray>
  <energy>
   <i name="e_fr_energy">   -606.89741849 </i>
   <i name="e_wo_entrp">   -606.89741849 </i>
   <i name="e_0_energy">     -0.00000000 </i>
  </energy>
  <time name="totalsc">  977.92  987.17</time>
  <eigenvalues>
   <array>
    <dimension dim="1">band</dimension>
    <dimension dim="2">kpoint</dimension>
    <dimension dim="3">spin</dimension>
    <field>eigene</field>
    <field>occ</field>
    <set>
     <set comment="spin 1">
      <set comment="kpoint 1">
       <r>  -23.3815    1.0000 </r>
       <r>  -23.3169    1.0000 </r>
       <r>  -23.3144    1.0000 </r>
       <r>  -23.1843    1.0000 </r>
       <r>  -22.9750    1.0000 </r>
       <r>  -22.9728    1.0000 </r>
       <r>  -22.8922    1.0000 </r>
       <r>  -22.7973    1.0000 </r>
       <r>  -22.7845    1.0000 </r>
       <r>  -22.7807    1.0000 </r>
       <r>  -22.6944    1.0000 </r>
       <r>  -22.6914    1.0000 </r>
       <r>  -21.7681    1.0000 </r>
       <r>  -21.6888    1.0000 </r>
       <r>  -21.6881    1.0000 </r>
       <r>  -21.6255    1.0000 </r>
       <r>  -21.6088    1.0000 </r>
       <r>  -21.6083    1.0000 </r>
       <r>  -20.3772    1.0000 </r>
       <r>  -20.2995    1.0000 </r>
       <r>  -19.7540    1.0000 </r>
       <r>  -19.7514    1.0000 </r>
       <r>  -19.5734    1.0000 </r>
       <r>  -18.7845    1.0000 </r>
       <r>  -18.7836    1.0000 </r>
       <r>  -18.1690    1.0000 </r>
       <r>  -18.1463    1.0000 </r>
       <r>  -18.1461    1.0000 </r>
       <r>  -17.4366    1.0000 </r>
       <r>  -17.4358    1.0000 </r>
       <r>  -16.8282    1.0000 </r>
       <r>  -16.8238    1.0000 </r>
       <r>  -16.8216    1.0000 </r>
       <r>  -16.5667    1.0000 </r>
       <r>  -16.3894    1.0000 </r>
       <r>  -16.3874    1.0000 </r>
       <r>  -15.2831    1.0000 </r>
       <r>  -15.2808    1.0000 </r>
       <r>  -14.8062    1.0000 </r>
       <r>  -14.6757    1.0000 </r>
       <r>  -14.6742    1.0000 </r>
       <r>  -14.3743    1.0000 </r>
       <r>  -14.3326    1.0000 </r>
       <r>  -14.3311    1.0000 </r>
       <r>  -14.0809    1.0000 </r>
       <r>  -14.0785    1.0000 </r>
       <r>  -14.0568    1.0000 </r>
       <r>  -13.9033    1.0000 </r>
       <r>  -13.2173    1.0000 </r>
       <r>  -13.2159    1.0000 </r>
       <r>  -12.7871    1.0000 </r>
       <r>  -12.7862    1.0000 </r>
       <r>  -12.6953    1.0000 </r>
       <r>  -12.5861    1.0000 </r>
       <r>  -12.4734    1.0000 </r>
       <r>  -12.4720    1.0000 </r>
       <r>  -12.2933    1.0000 </r>
       <r>  -12.1169    1.0000 </r>
       <r>  -12.1137    1.0000 </r>
       <r>  -12.1049    1.0000 </r>
       <r>  -12.0580    1.0000 </r>
       <r>  -11.8410    1.0000 </r>
       <r>  -11.8389    1.0000 </r>
       <r>  -11.5850    1.0000 </r>
       <r>  -11.5735    1.0000 </r>
       <r>  -11.4782    1.0000 </r>
       <r>  -11.4744    1.0000 </r>
       <r>  -11.2916    1.0000 </r>
       <r>  -11.2320    1.0000 </r>
       <r>  -11.1914    1.0000 </r>
       <r>  -11.1907    1.0000 </r>
       <r>  -11.0428    1.0000 </r>
       <r>  -10.9945    1.0000 </r>
       <r>  -10.9927    1.0000 </r>
       <r>  -10.8502    1.0000 </r>
       <r>  -10.8480    1.0000 </r>
       <r>  -10.8441    1.0000 </r>
       <r>  -10.8398    1.0000 </r>
       <r>  -10.8391    1.0000 </r>
       <r>  -10.8072    1.0000 </r>
       <r>  -10.3182    1.0000 </r>
       <r>  -10.1861    1.0000 </r>
       <r>  -10.1821    1.0000 </r>
       <r>   -9.7295    1.0000 </r>
       <r>   -9.6589    1.0000 </r>
       <r>   -9.6577    1.0000 </r>
       <r>   -9.6255    1.0000 </r>
       <r>   -9.5639    1.0000 </r>
       <r>   -9.5607    1.0000 </r>
       <r>   -9.5479    1.0000 </r>
       <r>   -9.5447    1.0000 </r>
       <r>   -9.4962    1.0000 </r>
       <r>   -9.3914    1.0000 </r>
       <r>   -9.0639    1.0000 </r>
       <r>   -9.0605    1.0000 </r>
       <r>   -8.9971    1.0000 </r>
       <r>   -8.8324    1.0000 </r>
       <r>   -8.8319    1.0000 </r>
       <r>   -8.6513    1.0000 </r>
       <r>   -8.6497    1.0000 </r>
       <r>   -8.3736    1.0000 </r>
       <r>   -8.3493    1.0000 </r>
       <r>   -8.3492    1.0000 </r>
       <r>   -8.2159    1.0000 </r>
       <r>   -8.2118    1.0000 </r>
       <r>   -8.1195    1.0000 </r>
       <r>   -7.8782    1.0000 </r>
       <r>   -7.8760    1.0000 </r>
       <r>   -7.8710    1.0000 </r>
       <r>   -7.3306    1.0000 </r>
       <r>   -7.3290    1.0000 </r>
       <r>   -7.2182    1.0000 </r>
       <r>   -6.6801    1.0000 </r>
       <r>   -6.6771    1.0000 </r>
       <r>   -6.6739    1.0000 </r>
       <r>   -6.6488    1.0000 </r>
       <r>   -6.3023    1.0000 </r>
       <r>   -6.2971    1.0000 </r>
       <r>   -6.1029    1.0000 </r>
       <r>   -6.0974    1.0000 </r>
       <r>   -5.8704    1.0000 </r>
       <r>   -5.8686    1.0000 </r>
       <r>   -5.8344    1.0000 </r>
       <r>   -5.6739    1.0000 </r>
       <r>   -5.5436    1.0000 </r>
       <r>   -5.5424    1.0000 </r>
       <r>   -5.4297    1.0000 </r>
       <r>   -4.9420    1.0000 </r>
       <r>   -4.9395    1.0000 </r>
       <r>   -4.8064    1.0000 </r>
       <r>   -4.5204    1.0000 </r>
       <r>   -4.5185    1.0000 </r>
       <r>   -3.5719    1.0000 </r>
       <r>   -3.5705    1.0000 </r>
       <r>   -3.5669    1.0000 </r>
       <r>   -2.5114    0.0000 </r>
       <r>   -2.5064    0.0000 </r>
       <r>   -2.2864    0.0000 </r>
       <r>   -1.4757    0.0000 </r>
       <r>   -1.4703    0.0000 </r>
       <r>   -1.0204    0.0000 </r>
       <r>   -0.5412    0.0000 </r>
       <r>   -0.3456    0.0000 </r>
       <r>   -0.3412    0.0000 </r>
       <r>   -0.2982    0.0000 </r>
       <r>   -0.2951    0.0000 </r>
       <r>   -0.1805    0.0000 </r>
       <r>   -0.1708    0.0000 </r>
       <r>   -0.1689    0.0000 </r>
       <r>    0.1384    0.0000 </r>
       <r>    0.1414    0.0000 </r>
       <r>    0.1560    0.0000 </r>
       <r>    0.3370    0.0000 </r>
       <r>    0.3376    0.0000 </r>
       <r>    0.3457    0.0000 </r>
       <r>    0.4375    0.0000 </r>
       <r>    0.4406    0.0000 </r>
       <r>    0.4435    0.0000 </r>
       <r>    0.5652    0.0000 </r>
       <r>    0.5701    0.0000 </r>
       <r>    0.5730    0.0000 </r>
       <r>    0.5910    0.0000 </r>
       <r>    0.6826    0.0000 </r>
       <r>    0.7192    0.0000 </r>
       <r>    0.7641    0.0000 </r>
       <r>    0.7663    0.0000 </r>
       <r>    0.8842    0.0000 </r>
       <r>    0.8856    0.0000 </r>
       <r>    0.8879    0.0000 </r>
       <r>    0.9890    0.0000 </r>
       <r>    1.0110    0.0000 </r>
       <r>    1.0127    0.0000 </r>
       <r>    1.0295    0.0000 </r>
       <r>    1.0305    0.0000 </r>
       <r>    1.0961    0.0000 </r>
       <r>    1.1098    0.0000 </r>
       <r>    1.1266    0.0000 </r>
       <r>    1.1308    0.0000 </r>
       <r>    1.1511    0.0000 </r>
       <r>    1.2317    0.0000 </r>
       <r>    1.2367    0.0000 </r>
       <r>    1.2518    0.0000 </r>
       <r>    1.3827    0.0000 </r>
       <r>    1.3855    0.0000 </r>
       <r>    1.4093    0.0000 </r>
       <r>    1.4778    0.0000 </r>
       <r>    1.4990    0.0000 </r>
       <r>    1.5006    0.0000 </r>
       <r>    1.5041    0.0000 </r>
       <r>    1.5058    0.0000 </r>
       <r>    1.5333    0.0000 </r>
       <r>    1.5608    0.0000 </r>
      </set>
      <set comment="kpoint 2">
       <r>  -23.3815    1.0000 </r>
       <r>  -23.3171    1.0000 </r>
       <r>  -23.3145    1.0000 </r>
       <r>  -23.1840    1.0000 </r>
       <r>  -22.9755    1.0000 </r>
       <r>  -22.9731    1.0000 </r>
       <r>  -22.8914    1.0000 </r>
       <r>  -22.7973    1.0000 </r>
       <r>  -22.7845    1.0000 </r>
       <r>  -22.7807    1.0000 </r>
       <r>  -22.6945    1.0000 </r>
       <r>  -22.6915    1.0000 </r>
       <r>  -21.7680    1.0000 </r>
       <r>  -21.6889    1.0000 </r>
       <r>  -21.6881    1.0000 </r>
       <r>  -21.6254    1.0000 </r>
       <r>  -21.6088    1.0000 </r>
       <r>  -21.6083    1.0000 </r>
       <r>  -20.3770    1.0000 </r>
       <r>  -20.2996    1.0000 </r>
       <r>  -19.7538    1.0000 </r>
       <r>  -19.7513    1.0000 </r>
       <r>  -19.5737    1.0000 </r>
       <r>  -18.7841    1.0000 </r>
       <r>  -18.7834    1.0000 </r>
       <r>  -18.1836    1.0000 </r>
       <r>  -18.1463    1.0000 </r>
       <r>  -18.1315    1.0000 </r>
       <r>  -17.4371    1.0000 </r>
       <r>  -17.4361    1.0000 </r>
       <r>  -16.8282    1.0000 </r>
       <r>  -16.8238    1.0000 </r>
       <r>  -16.8216    1.0000 </r>
       <r>  -16.5663    1.0000 </r>
       <r>  -16.3894    1.0000 </r>
       <r>  -16.3875    1.0000 </r>
       <r>  -15.2830    1.0000 </r>
       <r>  -15.2804    1.0000 </r>
       <r>  -14.8093    1.0000 </r>
       <r>  -14.6754    1.0000 </r>
       <r>  -14.6715    1.0000 </r>
       <r>  -14.3743    1.0000 </r>
       <r>  -14.3327    1.0000 </r>
       <r>  -14.3312    1.0000 </r>
       <r>  -14.0840    1.0000 </r>
       <r>  -14.0797    1.0000 </r>
       <r>  -14.0525    1.0000 </r>
       <r>  -13.9033    1.0000 </r>
       <r>  -13.2170    1.0000 </r>
       <r>  -13.2159    1.0000 </r>
       <r>  -12.7902    1.0000 </r>
       <r>  -12.7865    1.0000 </r>
       <r>  -12.6924    1.0000 </r>
       <r>  -12.5857    1.0000 </r>
       <r>  -12.4734    1.0000 </r>
       <r>  -12.4720    1.0000 </r>
       <r>  -12.2934    1.0000 </r>
       <r>  -12.1182    1.0000 </r>
       <r>  -12.1142    1.0000 </r>
       <r>  -12.1051    1.0000 </r>
       <r>  -12.0559    1.0000 </r>
       <r>  -11.8410    1.0000 </r>
       <r>  -11.8388    1.0000 </r>
       <r>  -11.5848    1.0000 </r>
       <r>  -11.5733    1.0000 </r>
       <r>  -11.4782    1.0000 </r>
       <r>  -11.4745    1.0000 </r>
       <r>  -11.2922    1.0000 </r>
       <r>  -11.2320    1.0000 </r>
       <r>  -11.1918    1.0000 </r>
       <r>  -11.1908    1.0000 </r>
       <r>  -11.0425    1.0000 </r>
       <r>  -10.9942    1.0000 </r>
       <r>  -10.9927    1.0000 </r>
       <r>  -10.8509    1.0000 </r>
       <r>  -10.8478    1.0000 </r>
       <r>  -10.8444    1.0000 </r>
       <r>  -10.8396    1.0000 </r>
       <r>  -10.8387    1.0000 </r>
       <r>  -10.8072    1.0000 </r>
       <r>  -10.3180    1.0000 </r>
       <r>  -10.1862    1.0000 </r>
       <r>  -10.1822    1.0000 </r>
       <r>   -9.7290    1.0000 </r>
       <r>   -9.6588    1.0000 </r>
       <r>   -9.6577    1.0000 </r>
       <r>   -9.6255    1.0000 </r>
       <r>   -9.5639    1.0000 </r>
       <r>   -9.5607    1.0000 </r>
       <r>   -9.5480    1.0000 </r>
       <r>   -9.5447    1.0000 </r>
       <r>   -9.4963    1.0000 </r>
       <r>   -9.3914    1.0000 </r>
       <r>   -9.0652    1.0000 </r>
       <r>   -9.0633    1.0000 </r>
       <r>   -8.9932    1.0000 </r>
       <r>   -8.8324    1.0000 </r>
       <r>   -8.8312    1.0000 </r>
       <r>   -8.6514    1.0000 </r>
       <r>   -8.6497    1.0000 </r>
       <r>   -8.3738    1.0000 </r>
       <r>   -8.3493    1.0000 </r>
       <r>   -8.3491    1.0000 </r>
       <r>   -8.2176    1.0000 </r>
       <r>   -8.2139    1.0000 </r>
       <r>   -8.1153    1.0000 </r>
       <r>   -7.8782    1.0000 </r>
       <r>   -7.8760    1.0000 </r>
       <r>   -7.8710    1.0000 </r>
       <r>   -7.3332    1.0000 </r>
       <r>   -7.3305    1.0000 </r>
       <r>   -7.2144    1.0000 </r>
       <r>   -6.6822    1.0000 </r>
       <r>   -6.6777    1.0000 </r>
       <r>   -6.6718    1.0000 </r>
       <r>   -6.6488    1.0000 </r>
       <r>   -6.3021    1.0000 </r>
       <r>   -6.2968    1.0000 </r>
       <r>   -6.1030    1.0000 </r>
       <r>   -6.0976    1.0000 </r>
       <r>   -5.8703    1.0000 </r>
       <r>   -5.8686    1.0000 </r>
       <r>   -5.8343    1.0000 </r>
       <r>   -5.6739    1.0000 </r>
       <r>   -5.5438    1.0000 </r>
       <r>   -5.5433    1.0000 </r>
       <r>   -5.4284    1.0000 </r>
       <r>   -4.9437    1.0000 </r>
       <r>   -4.9396    1.0000 </r>
       <r>   -4.8048    1.0000 </r>
       <r>   -4.5206    1.0000 </r>
       <r>   -4.5185    1.0000 </r>
       <r>   -3.5719    1.0000 </r>
       <r>   -3.5705    1.0000 </r>
       <r>   -3.5669    1.0000 </r>
       <r>   -2.5113    0.0000 </r>
       <r>   -2.5061    0.0000 </r>
       <r>   -2.2869    0.0000 </r>
       <r>   -1.4757    0.0000 </r>
       <r>   -1.4696    0.0000 </r>
       <r>   -1.0212    0.0000 </r>
       <r>   -0.5410    0.0000 </r>
       <r>   -0.3461    0.0000 </r>
       <r>   -0.3417    0.0000 </r>
       <r>   -0.2981    0.0000 </r>
       <r>   -0.2949    0.0000 </r>
       <r>   -0.1801    0.0000 </r>
       <r>   -0.1705    0.0000 </r>
       <r>   -0.1683    0.0000 </r>
       <r>    0.1382    0.0000 </r>
       <r>    0.1400    0.0000 </r>
       <r>    0.1578    0.0000 </r>
       <r>    0.3370    0.0000 </r>
       <r>    0.3375    0.0000 </r>
       <r>    0.3457    0.0000 </r>
       <r>    0.4365    0.0000 </r>
       <r>    0.4394    0.0000 </r>
       <r>    0.4430    0.0000 </r>
       <r>    0.5669    0.0000 </r>
       <r>    0.5687    0.0000 </r>
       <r>    0.5736    0.0000 </r>
       <r>    0.5924    0.0000 </r>
       <r>    0.6836    0.0000 </r>
       <r>    0.7187    0.0000 </r>
       <r>    0.7645    0.0000 </r>
       <r>    0.7663    0.0000 </r>
       <r>    0.8725    0.0000 </r>
       <r>    0.8858    0.0000 </r>
       <r>    0.8993    0.0000 </r>
       <r>    0.9878    0.0000 </r>
       <r>    1.0089    0.0000 </r>
       <r>    1.0115    0.0000 </r>
       <r>    1.0309    0.0000 </r>
       <r>    1.0319    0.0000 </r>
       <r>    1.0961    0.0000 </r>
       <r>    1.1112    0.0000 </r>
       <r>    1.1248    0.0000 </r>
       <r>    1.1312    0.0000 </r>
       <r>    1.1539    0.0000 </r>
       <r>    1.2307    0.0000 </r>
       <r>    1.2366    0.0000 </r>
       <r>    1.2515    0.0000 </r>
       <r>    1.3833    0.0000 </r>
       <r>    1.3859    0.0000 </r>
       <r>    1.4072    0.0000 </r>
       <r>    1.4766    0.0000 </r>
       <r>    1.4926    0.0000 </r>
       <r>    1.4937    0.0000 </r>
       <r>    1.5101    0.0000 </r>
       <r>    1.5136    0.0000 </r>
       <r>    1.5372    0.0000 </r>
       <r>    1.5617    0.0000 </r>
      </set>
      <set comment="kpoint 3">
       <r>  -23.3813    1.0000 </r>
       <r>  -23.3175    1.0000 </r>
       <r>  -23.3146    1.0000 </r>
       <r>  -23.1831    1.0000 </r>
       <r>  -22.9774    1.0000 </r>
       <r>  -22.9735    1.0000 </r>
       <r>  -22.8892    1.0000 </r>
       <r>  -22.7973    1.0000 </r>
       <r>  -22.7844    1.0000 </r>
       <r>  -22.7807    1.0000 </r>
       <r>  -22.6949    1.0000 </r>
       <r>  -22.6917    1.0000 </r>
       <r>  -21.7676    1.0000 </r>
       <r>  -21.6894    1.0000 </r>
       <r>  -21.6881    1.0000 </r>
       <r>  -21.6252    1.0000 </r>
       <r>  -21.6089    1.0000 </r>
       <r>  -21.6083    1.0000 </r>
       <r>  -20.3767    1.0000 </r>
       <r>  -20.3000    1.0000 </r>
       <r>  -19.7532    1.0000 </r>
       <r>  -19.7511    1.0000 </r>
       <r>  -19.5747    1.0000 </r>
       <r>  -18.7838    1.0000 </r>
       <r>  -18.7819    1.0000 </r>
       <r>  -18.2055    1.0000 </r>
       <r>  -18.1463    1.0000 </r>
       <r>  -18.1092    1.0000 </r>
       <r>  -17.4392    1.0000 </r>
       <r>  -17.4362    1.0000 </r>
       <r>  -16.8282    1.0000 </r>
       <r>  -16.8238    1.0000 </r>
       <r>  -16.8217    1.0000 </r>
       <r>  -16.5650    1.0000 </r>
       <r>  -16.3897    1.0000 </r>
       <r>  -16.3878    1.0000 </r>
       <r>  -15.2829    1.0000 </r>
       <r>  -15.2793    1.0000 </r>
       <r>  -14.8178    1.0000 </r>
       <r>  -14.6754    1.0000 </r>
       <r>  -14.6633    1.0000 </r>
       <r>  -14.3742    1.0000 </r>
       <r>  -14.3330    1.0000 </r>
       <r>  -14.3314    1.0000 </r>
       <r>  -14.0930    1.0000 </r>
       <r>  -14.0795    1.0000 </r>
       <r>  -14.0440    1.0000 </r>
       <r>  -13.9032    1.0000 </r>
       <r>  -13.2164    1.0000 </r>
       <r>  -13.2157    1.0000 </r>
       <r>  -12.7990    1.0000 </r>
       <r>  -12.7869    1.0000 </r>
       <r>  -12.6847    1.0000 </r>
       <r>  -12.5845    1.0000 </r>
       <r>  -12.4737    1.0000 </r>
       <r>  -12.4721    1.0000 </r>
       <r>  -12.2936    1.0000 </r>
       <r>  -12.1227    1.0000 </r>
       <r>  -12.1148    1.0000 </r>
       <r>  -12.1055    1.0000 </r>
       <r>  -12.0503    1.0000 </r>
       <r>  -11.8411    1.0000 </r>
       <r>  -11.8383    1.0000 </r>
       <r>  -11.5845    1.0000 </r>
       <r>  -11.5726    1.0000 </r>
       <r>  -11.4782    1.0000 </r>
       <r>  -11.4749    1.0000 </r>
       <r>  -11.2938    1.0000 </r>
       <r>  -11.2321    1.0000 </r>
       <r>  -11.1929    1.0000 </r>
       <r>  -11.1911    1.0000 </r>
       <r>  -11.0416    1.0000 </r>
       <r>  -10.9935    1.0000 </r>
       <r>  -10.9924    1.0000 </r>
       <r>  -10.8524    1.0000 </r>
       <r>  -10.8479    1.0000 </r>
       <r>  -10.8447    1.0000 </r>
       <r>  -10.8391    1.0000 </r>
       <r>  -10.8375    1.0000 </r>
       <r>  -10.8072    1.0000 </r>
       <r>  -10.3175    1.0000 </r>
       <r>  -10.1868    1.0000 </r>
       <r>  -10.1824    1.0000 </r>
       <r>   -9.7275    1.0000 </r>
       <r>   -9.6585    1.0000 </r>
       <r>   -9.6574    1.0000 </r>
       <r>   -9.6254    1.0000 </r>
       <r>   -9.5639    1.0000 </r>
       <r>   -9.5608    1.0000 </r>
       <r>   -9.5482    1.0000 </r>
       <r>   -9.5447    1.0000 </r>
       <r>   -9.4969    1.0000 </r>
       <r>   -9.3912    1.0000 </r>
       <r>   -9.0757    1.0000 </r>
       <r>   -9.0633    1.0000 </r>
       <r>   -8.9839    1.0000 </r>
       <r>   -8.8325    1.0000 </r>
       <r>   -8.8291    1.0000 </r>
       <r>   -8.6521    1.0000 </r>
       <r>   -8.6496    1.0000 </r>
       <r>   -8.3743    1.0000 </r>
       <r>   -8.3494    1.0000 </r>
       <r>   -8.3491    1.0000 </r>
       <r>   -8.2268    1.0000 </r>
       <r>   -8.2147    1.0000 </r>
       <r>   -8.1043    1.0000 </r>
       <r>   -7.8782    1.0000 </r>
       <r>   -7.8760    1.0000 </r>
       <r>   -7.8710    1.0000 </r>
       <r>   -7.3436    1.0000 </r>
       <r>   -7.3305    1.0000 </r>
       <r>   -7.2044    1.0000 </r>
       <r>   -6.6868    1.0000 </r>
       <r>   -6.6779    1.0000 </r>
       <r>   -6.6688    1.0000 </r>
       <r>   -6.6488    1.0000 </r>
       <r>   -6.3016    1.0000 </r>
       <r>   -6.2961    1.0000 </r>
       <r>   -6.1035    1.0000 </r>
       <r>   -6.0980    1.0000 </r>
       <r>   -5.8702    1.0000 </r>
       <r>   -5.8684    1.0000 </r>
       <r>   -5.8343    1.0000 </r>
       <r>   -5.6738    1.0000 </r>
       <r>   -5.5463    1.0000 </r>
       <r>   -5.5436    1.0000 </r>
       <r>   -5.4246    1.0000 </r>
       <r>   -4.9488    1.0000 </r>
       <r>   -4.9397    1.0000 </r>
       <r>   -4.8002    1.0000 </r>
       <r>   -4.5212    1.0000 </r>
       <r>   -4.5185    1.0000 </r>
       <r>   -3.5719    1.0000 </r>
       <r>   -3.5705    1.0000 </r>
       <r>   -3.5669    1.0000 </r>
       <r>   -2.5113    0.0000 </r>
       <r>   -2.5054    0.0000 </r>
       <r>   -2.2883    0.0000 </r>
       <r>   -1.4756    0.0000 </r>
       <r>   -1.4675    0.0000 </r>
       <r>   -1.0235    0.0000 </r>
       <r>   -0.5404    0.0000 </r>
       <r>   -0.3477    0.0000 </r>
       <r>   -0.3432    0.0000 </r>
       <r>   -0.2981    0.0000 </r>
       <r>   -0.2938    0.0000 </r>
       <r>   -0.1791    0.0000 </r>
       <r>   -0.1698    0.0000 </r>
       <r>   -0.1663    0.0000 </r>
       <r>    0.1366    0.0000 </r>
       <r>    0.1376    0.0000 </r>
       <r>    0.1621    0.0000 </r>
       <r>    0.3368    0.0000 </r>
       <r>    0.3373    0.0000 </r>
       <r>    0.3458    0.0000 </r>
       <r>    0.4321    0.0000 </r>
       <r>    0.4372    0.0000 </r>
       <r>    0.4421    0.0000 </r>
       <r>    0.5650    0.0000 </r>
       <r>    0.5715    0.0000 </r>
       <r>    0.5758    0.0000 </r>
       <r>    0.5958    0.0000 </r>
       <r>    0.6865    0.0000 </r>
       <r>    0.7171    0.0000 </r>
       <r>    0.7653    0.0000 </r>
       <r>    0.7666    0.0000 </r>
       <r>    0.8597    0.0000 </r>
       <r>    0.8856    0.0000 </r>
       <r>    0.9119    0.0000 </r>
       <r>    0.9840    0.0000 </r>
       <r>    1.0049    0.0000 </r>
       <r>    1.0091    0.0000 </r>
       <r>    1.0321    0.0000 </r>
       <r>    1.0365    0.0000 </r>
       <r>    1.0958    0.0000 </r>
       <r>    1.1145    0.0000 </r>
       <r>    1.1216    0.0000 </r>
       <r>    1.1322    0.0000 </r>
       <r>    1.1609    0.0000 </r>
       <r>    1.2279    0.0000 </r>
       <r>    1.2362    0.0000 </r>
       <r>    1.2508    0.0000 </r>
       <r>    1.3848    0.0000 </r>
       <r>    1.3860    0.0000 </r>
       <r>    1.4022    0.0000 </r>
       <r>    1.4719    0.0000 </r>
       <r>    1.4852    0.0000 </r>
       <r>    1.4883    0.0000 </r>
       <r>    1.5166    0.0000 </r>
       <r>    1.5233    0.0000 </r>
       <r>    1.5470    0.0000 </r>
       <r>    1.5645    0.0000 </r>
      </set>
      <set comment="kpoint 4">
       <r>  -23.3810    1.0000 </r>
       <r>  -23.3183    1.0000 </r>
       <r>  -23.3147    1.0000 </r>
       <r>  -23.1816    1.0000 </r>
       <r>  -22.9809    1.0000 </r>
       <r>  -22.9736    1.0000 </r>
       <r>  -22.8858    1.0000 </r>
       <r>  -22.7974    1.0000 </r>
       <r>  -22.7843    1.0000 </r>
       <r>  -22.7807    1.0000 </r>
       <r>  -22.6955    1.0000 </r>
       <r>  -22.6919    1.0000 </r>
       <r>  -21.7671    1.0000 </r>
       <r>  -21.6901    1.0000 </r>
       <r>  -21.6881    1.0000 </r>
       <r>  -21.6250    1.0000 </r>
       <r>  -21.6089    1.0000 </r>
       <r>  -21.6083    1.0000 </r>
       <r>  -20.3762    1.0000 </r>
       <r>  -20.3007    1.0000 </r>
       <r>  -19.7526    1.0000 </r>
       <r>  -19.7505    1.0000 </r>
       <r>  -19.5762    1.0000 </r>
       <r>  -18.7838    1.0000 </r>
       <r>  -18.7791    1.0000 </r>
       <r>  -18.2281    1.0000 </r>
       <r>  -18.1463    1.0000 </r>
       <r>  -18.0861    1.0000 </r>
       <r>  -17.4431    1.0000 </r>
       <r>  -17.4362    1.0000 </r>
       <r>  -16.8282    1.0000 </r>
       <r>  -16.8239    1.0000 </r>
       <r>  -16.8217    1.0000 </r>
       <r>  -16.5630    1.0000 </r>
       <r>  -16.3902    1.0000 </r>
       <r>  -16.3882    1.0000 </r>
       <r>  -15.2827    1.0000 </r>
       <r>  -15.2773    1.0000 </r>
       <r>  -14.8302    1.0000 </r>
       <r>  -14.6754    1.0000 </r>
       <r>  -14.6513    1.0000 </r>
       <r>  -14.3741    1.0000 </r>
       <r>  -14.3337    1.0000 </r>
       <r>  -14.3318    1.0000 </r>
       <r>  -14.1034    1.0000 </r>
       <r>  -14.0788    1.0000 </r>
       <r>  -14.0346    1.0000 </r>
       <r>  -13.9031    1.0000 </r>
       <r>  -13.2164    1.0000 </r>
       <r>  -13.2144    1.0000 </r>
       <r>  -12.8114    1.0000 </r>
       <r>  -12.7875    1.0000 </r>
       <r>  -12.6743    1.0000 </r>
       <r>  -12.5826    1.0000 </r>
       <r>  -12.4744    1.0000 </r>
       <r>  -12.4719    1.0000 </r>
       <r>  -12.2941    1.0000 </r>
       <r>  -12.1291    1.0000 </r>
       <r>  -12.1153    1.0000 </r>
       <r>  -12.1062    1.0000 </r>
       <r>  -12.0425    1.0000 </r>
       <r>  -11.8412    1.0000 </r>
       <r>  -11.8376    1.0000 </r>
       <r>  -11.5838    1.0000 </r>
       <r>  -11.5715    1.0000 </r>
       <r>  -11.4782    1.0000 </r>
       <r>  -11.4755    1.0000 </r>
       <r>  -11.2966    1.0000 </r>
       <r>  -11.2323    1.0000 </r>
       <r>  -11.1946    1.0000 </r>
       <r>  -11.1915    1.0000 </r>
       <r>  -11.0402    1.0000 </r>
       <r>  -10.9924    1.0000 </r>
       <r>  -10.9919    1.0000 </r>
       <r>  -10.8542    1.0000 </r>
       <r>  -10.8486    1.0000 </r>
       <r>  -10.8449    1.0000 </r>
[...]
       <r>   -22.5228     0.0000    24.0000 </r>
       <r>   -22.4311     0.0000    24.0000 </r>
       <r>   -22.3394     0.0000    24.0000 </r>
       <r>   -22.2477     0.0000    24.0000 </r>
       <r>   -22.1560     0.0000    24.0000 </r>
       <r>   -22.0643     0.0000    24.0000 </r>
       <r>   -21.9726     0.0000    24.0000 </r>
       <r>   -21.8809     0.0000    24.0000 </r>
       <r>   -21.7892     0.0041    24.0004 </r>
       <r>   -21.6975    40.2432    27.6909 </r>
       <r>   -21.6058    51.7574    34.7465 </r>
       <r>   -21.5141     0.0000    36.0000 </r>
       <r>   -21.4224     0.0000    36.0000 </r>
       <r>   -21.3307     0.0000    36.0000 </r>
       <r>   -21.2390     0.0000    36.0000 </r>
       <r>   -21.1473     0.0000    36.0000 </r>
       <r>   -21.0555     0.0000    36.0000 </r>
       <r>   -20.9638     0.0000    36.0000 </r>
       <r>   -20.8721     0.0000    36.0000 </r>
       <r>   -20.7804     0.0000    36.0000 </r>
       <r>   -20.6887     0.0000    36.0000 </r>
       <r>   -20.5970     0.0000    36.0000 </r>
       <r>   -20.5053     0.0000    36.0000 </r>
       <r>   -20.4136     0.0000    36.0000 </r>
       <r>   -20.3219    32.7959    39.0076 </r>
       <r>   -20.2302     6.4922    40.0000 </r>
       <r>   -20.1385     0.0000    40.0000 </r>
       <r>   -20.0468     0.0000    40.0000 </r>
       <r>   -19.9551     0.0000    40.0000 </r>
       <r>   -19.8634     0.0000    40.0000 </r>
       <r>   -19.7717     0.0718    40.0066 </r>
       <r>   -19.6800    40.8844    43.7559 </r>
       <r>   -19.5883    16.8004    45.5439 </r>
       <r>   -19.4965     2.4790    46.0000 </r>
       <r>   -19.4048     0.0000    46.0000 </r>
       <r>   -19.3131     0.0000    46.0000 </r>
       <r>   -19.2214     0.0000    46.0000 </r>
       <r>   -19.1297     0.0000    46.0000 </r>
       <r>   -19.0380     0.0000    46.0000 </r>
       <r>   -18.9463     0.0000    46.0000 </r>
       <r>   -18.8546     0.0000    46.0000 </r>
       <r>   -18.7629    26.2764    48.4097 </r>
       <r>   -18.6712     5.4563    49.0020 </r>
       <r>   -18.5795    10.5950    50.0417 </r>
       <r>   -18.4878     8.6906    50.9640 </r>
       <r>   -18.3961     2.8567    51.2955 </r>
       <r>   -18.3044     2.5516    51.5677 </r>
       <r>   -18.2127     2.4017    51.8210 </r>
       <r>   -18.1210    24.6510    54.1273 </r>
       <r>   -18.0293     2.5536    54.3692 </r>
       <r>   -17.9376     2.4008    54.6212 </r>
       <r>   -17.8458     2.6963    54.8817 </r>
       <r>   -17.7541     6.9422    55.5700 </r>
       <r>   -17.6624     5.9462    56.2124 </r>
       <r>   -17.5707     8.3007    57.0617 </r>
       <r>   -17.4790     3.9432    57.4950 </r>
       <r>   -17.3873    26.5268    60.0000 </r>
       <r>   -17.2956     0.0000    60.0000 </r>
       <r>   -17.2039     0.0000    60.0000 </r>
       <r>   -17.1122     0.0000    60.0000 </r>
       <r>   -17.0205     0.0000    60.0000 </r>
       <r>   -16.9288     0.0000    60.0000 </r>
       <r>   -16.8371     3.6151    60.3315 </r>
       <r>   -16.7454    28.7490    66.0000 </r>
       <r>   -16.6537     0.0000    66.0000 </r>
       <r>   -16.5620     2.3517    66.2157 </r>
       <r>   -16.4703    14.4348    67.7588 </r>
       <r>   -16.3786    40.9072    71.8206 </r>
       <r>   -16.2868     0.0000    72.0000 </r>
       <r>   -16.1951     0.0000    72.0000 </r>
       <r>   -16.1034     0.0000    72.0000 </r>
       <r>   -16.0117     0.0000    72.0000 </r>
       <r>   -15.9200     0.0000    72.0000 </r>
       <r>   -15.8283     0.0000    72.0000 </r>
       <r>   -15.7366     0.0000    72.0000 </r>
       <r>   -15.6449     0.0000    72.0000 </r>
       <r>   -15.5532     0.0000    72.0000 </r>
       <r>   -15.4615     0.0000    72.0000 </r>
       <r>   -15.3698     0.0000    72.0000 </r>
       <r>   -15.2781    15.3351    73.4063 </r>
       <r>   -15.1864     7.5715    75.0967 </r>
       <r>   -15.0947     9.9824    76.2859 </r>
       <r>   -15.0030     8.1082    77.1451 </r>
       <r>   -14.9113     3.0534    77.4801 </r>
       <r>   -14.8196     3.6840    77.8387 </r>
       <r>   -14.7278     0.7054    78.0000 </r>
       <r>   -14.6361    24.9199    80.2853 </r>
       <r>   -14.5444     3.2044    80.6278 </r>
       <r>   -14.4527     3.6369    81.0009 </r>
       <r>   -14.3610    35.4939    84.3228 </r>
       <r>   -14.2693    29.9843    88.4564 </r>
       <r>   -14.1776     8.7868    89.3747 </r>
       <r>   -14.0859     5.8134    89.9671 </r>
       <r>   -13.9942    22.0822    92.4966 </r>
       <r>   -13.9025    30.9240    95.4044 </r>
       <r>   -13.8108     0.0000    96.0000 </r>
       <r>   -13.7191     0.0000    96.0000 </r>
       <r>   -13.6274     0.0000    96.0000 </r>
       <r>   -13.5357     0.0000    96.0000 </r>
       <r>   -13.4440     0.0000    96.0000 </r>
       <r>   -13.3523     0.0000    96.0000 </r>
       <r>   -13.2606     0.0000    96.0000 </r>
       <r>   -13.1689    30.7388    98.8189 </r>
       <r>   -13.0771    12.4733   100.0778 </r>
       <r>   -12.9854     9.7357   101.0939 </r>
       <r>   -12.8937     3.5395   101.4586 </r>
       <r>   -12.8020    13.5346   102.7414 </r>
       <r>   -12.7103     5.3406   104.0014 </r>
       <r>   -12.6186     5.8710   104.5398 </r>
       <r>   -12.5269    31.0997   107.4863 </r>
       <r>   -12.4352    35.9231   111.0654 </r>
       <r>   -12.3435    19.9823   113.0414 </r>
       <r>   -12.2518     9.4372   114.0000 </r>
       <r>   -12.1601    14.8945   115.3659 </r>
       <r>   -12.0684    38.2132   120.0074 </r>
       <r>   -11.9767     6.2059   120.6384 </r>
       <r>   -11.8850    13.1206   121.9368 </r>
       <r>   -11.7933    41.7621   125.9999 </r>
       <r>   -11.7016     0.0000   126.0000 </r>
       <r>   -11.6099     0.0006   126.0001 </r>
       <r>   -11.5181    42.9443   129.9383 </r>
       <r>   -11.4264    46.1902   134.2361 </r>
       <r>   -11.3347    10.8231   135.3955 </r>
       <r>   -11.2430     9.1519   136.3398 </r>
       <r>   -11.1513    34.0959   142.0000 </r>
       <r>   -11.0596     0.0182   142.0017 </r>
       <r>   -10.9679    54.4946   146.9991 </r>
       <r>   -10.8762     9.2164   148.8452 </r>
       <r>   -10.7845   109.2010   159.9993 </r>
       <r>   -10.6928     0.0000   160.0000 </r>
       <r>   -10.6011     0.0000   160.0000 </r>
       <r>   -10.5094     0.0000   160.0000 </r>
       <r>   -10.4177     0.0000   160.0000 </r>
       <r>   -10.3260     0.4311   160.0395 </r>
       <r>   -10.2343    27.3237   162.8435 </r>
       <r>   -10.1426    31.2337   166.0000 </r>
       <r>   -10.0509     0.0000   166.0000 </r>
       <r>    -9.9591     0.0000   166.0000 </r>
       <r>    -9.8674     0.0000   166.0000 </r>
       <r>    -9.7757     0.0000   166.0000 </r>
       <r>    -9.6840     7.3262   166.6719 </r>
       <r>    -9.5923    82.4222   174.3268 </r>
       <r>    -9.5006    95.8113   183.6902 </r>
       <r>    -9.4089     0.0278   184.0026 </r>
       <r>    -9.3172    24.9819   186.2935 </r>
       <r>    -9.2255     8.8780   187.2500 </r>
       <r>    -9.1338     3.3833   187.6108 </r>
       <r>    -9.0421    22.5113   189.6992 </r>
       <r>    -8.9504     3.6507   190.3348 </r>
       <r>    -8.8587    17.3020   191.9878 </r>
       <r>    -8.7670    31.1145   194.8535 </r>
       <r>    -8.6753    16.6943   196.6012 </r>
       <r>    -8.5836    32.2832   199.8976 </r>
       <r>    -8.4919     9.3580   200.9256 </r>
       <r>    -8.4002     4.4171   201.4058 </r>
       <r>    -8.3084    65.1250   207.4740 </r>
       <r>    -8.2167    12.2545   208.6587 </r>
       <r>    -8.1250     0.2094   210.0192 </r>
       <r>    -8.0333     3.0307   210.4113 </r>
       <r>    -7.9416     2.9449   210.7038 </r>
       <r>    -7.8499    67.4603   216.9205 </r>
       <r>    -7.7582     8.2545   217.7574 </r>
       <r>    -7.6665     5.7689   218.3627 </r>
       <r>    -7.5748     7.1680   219.0924 </r>
       <r>    -7.4831     2.6771   219.3789 </r>
       <r>    -7.3914     2.5194   219.6644 </r>
       <r>    -7.2997    25.0754   222.0000 </r>
       <r>    -7.2080     1.4173   222.1300 </r>
       <r>    -7.1163     3.1453   222.4887 </r>
       <r>    -7.0246     3.4388   222.8174 </r>
       <r>    -6.9329     8.2567   223.6240 </r>
       <r>    -6.8412     8.3044   224.4958 </r>
       <r>    -6.7494     7.4813   225.3569 </r>
       <r>    -6.6577    39.1186   229.0212 </r>
       <r>    -6.5660     0.0000   232.0000 </r>
       <r>    -6.4743     0.0000   232.0000 </r>
       <r>    -6.3826     0.0000   232.0000 </r>
       <r>    -6.2909    22.6428   234.0765 </r>
       <r>    -6.1992    14.3225   235.8149 </r>
       <r>    -6.1075    20.5987   237.9583 </r>
       <r>    -6.0158     0.0000   240.0000 </r>
       <r>    -5.9241     0.0000   240.0000 </r>
       <r>    -5.8324    58.0949   245.3276 </r>
       <r>    -5.7407     0.0000   246.0000 </r>
       <r>    -5.6490    21.7234   247.9922 </r>
       <r>    -5.5573    14.0560   249.7625 </r>
       <r>    -5.4656    22.6995   252.0000 </r>
       <r>    -5.3739     5.5897   252.5126 </r>
       <r>    -5.2822     4.6930   252.9978 </r>
       <r>    -5.1904    11.4750   254.1218 </r>
       <r>    -5.0987     9.4305   255.0990 </r>
       <r>    -5.0070     4.1170   255.5124 </r>
       <r>    -4.9153    26.5247   257.9995 </r>
       <r>    -4.8236     0.0081   258.0007 </r>
       <r>    -4.7319     6.3604   258.5840 </r>
       <r>    -4.6402     9.6401   259.5189 </r>
       <r>    -4.5485    17.0774   261.2689 </r>
       <r>    -4.4568    27.9599   264.0000 </r>
       <r>    -4.3651     0.0000   264.0000 </r>
       <r>    -4.2734     0.0000   264.0000 </r>
       <r>    -4.1817     0.0000   264.0000 </r>
       <r>    -4.0900     0.0000   264.0000 </r>
       <r>    -3.9983     0.0000   264.0000 </r>
       <r>    -3.9066     0.0000   264.0000 </r>
       <r>    -3.8149     0.0000   264.0000 </r>
       <r>    -3.7232     0.0000   264.0000 </r>
       <r>    -3.6315     0.0000   264.0000 </r>
       <r>    -3.5397    65.4251   269.9999 </r>
       <r>    -3.4480     0.0000   270.0000 </r>
       <r>    -3.3563     0.0000   270.0000 </r>
       <r>    -3.2646     0.0000   270.0000 </r>
       <r>    -3.1729     0.0000   270.0000 </r>
       <r>    -3.0812     0.0000   270.0000 </r>
       <r>    -2.9895     0.0000   270.0000 </r>
       <r>    -2.8978     0.0000   270.0000 </r>
       <r>    -2.8061     0.0000   270.0000 </r>
       <r>    -2.7144     0.0000   270.0000 </r>
       <r>    -2.6227     0.0000   270.0000 </r>
       <r>    -2.5310     0.0401   270.0037 </r>
       <r>    -2.4393    37.6411   273.4556 </r>
       <r>    -2.3476    15.2587   275.1675 </r>
       <r>    -2.2559     7.9838   276.0000 </r>
       <r>    -2.1642     0.0000   276.0000 </r>
       <r>    -2.0725     0.0000   276.0000 </r>
       <r>    -1.9807     0.0000   276.0000 </r>
       <r>    -1.8890     0.0000   276.0000 </r>
       <r>    -1.7973     0.0000   276.0000 </r>
       <r>    -1.7056     0.0000   276.0000 </r>
       <r>    -1.6139     0.0000   276.0000 </r>
       <r>    -1.5222     0.0000   276.0000 </r>
       <r>    -1.4305    27.3616   278.5092 </r>
       <r>    -1.3388     4.6639   278.9956 </r>
       <r>    -1.2471    10.4503   280.0266 </r>
       <r>    -1.1554     9.2588   281.0160 </r>
       <r>    -1.0637     4.5432   281.4841 </r>
       <r>    -0.9720     4.7205   282.0000 </r>
       <r>    -0.8803     0.0000   282.0000 </r>
       <r>    -0.7886     0.0000   282.0000 </r>
       <r>    -0.6969     0.0000   282.0000 </r>
       <r>    -0.6052     0.0000   282.0000 </r>
       <r>    -0.5135     8.3784   282.7683 </r>
       <r>    -0.4217    25.0304   285.2299 </r>
       <r>    -0.3300    25.9987   287.9878 </r>
       <r>    -0.2383    36.9729   291.3906 </r>
       <r>    -0.1466    31.9933   295.1359 </r>
       <r>    -0.0549    14.3636   296.9527 </r>
       <r>     0.0368    13.4442   298.2355 </r>
       <r>     0.1285    25.4307   300.7011 </r>
       <r>     0.2202     8.4016   302.7060 </r>
       <r>     0.3119    38.1892   306.3037 </r>
       <r>     0.4036    71.2653   313.1732 </r>
       <r>     0.4953    27.8631   316.1945 </r>
       <r>     0.5870    29.1698   319.0096 </r>
       <r>     0.6787    40.1560   323.6927 </r>
       <r>     0.7704    37.2166   329.0585 </r>
       <r>     0.8621    46.9279   334.2835 </r>
       <r>     0.9538    51.4578   339.5622 </r>
       <r>     1.0455    74.9701   346.9831 </r>
       <r>     1.1372    60.9771   353.4630 </r>
       <r>     1.2290    52.4413   359.1824 </r>
       <r>     1.3207    29.5034   363.0777 </r>
       <r>     1.4124    58.2132   368.8130 </r>
       <r>     1.5041    69.4360   376.0063 </r>
       <r>     1.5958    59.6656   382.2125 </r>
       <r>     1.6875    15.5673   384.0000 </r>
       <r>     1.7792     0.0000   384.0000 </r>
       <r>     1.8709     0.0000   384.0000 </r>
       <r>     1.9626     0.0000   384.0000 </r>
       <r>     2.0543     0.0000   384.0000 </r>
       <r>     2.1460     0.0000   384.0000 </r>
       <r>     2.2377     0.0000   384.0000 </r>
       <r>     2.3294     0.0000   384.0000 </r>
       <r>     2.4211     0.0000   384.0000 </r>
       <r>     2.5128     0.0000   384.0000 </r>
       <r>     2.6045     0.0000   384.0000 </r>
       <r>     2.6962     0.0000   384.0000 </r>
       <r>     2.7880     0.0000   384.0000 </r>
       <r>     2.8797     0.0000   384.0000 </r>
      </set>
     </set>
    </array>
   </total>
  </dos>
 </calculation>
 <structure name="finalpos" >
  <crystal>
   <varray name="basis" >
    <v>      22.34319067       0.02441743       0.00000000 </v>
    <v>     -11.15065243      19.34415357       0.00000000 </v>
    <v>       0.00000000       0.00000000      20.00000000 </v>
   </varray>
   <i name="volume">   8649.64763535 </i>
   <varray name="rec_basis" >
    <v>       0.04472819       0.02578291       0.00000000 </v>
    <v>      -0.00005646       0.05166266       0.00000000 </v>
    <v>       0.00000000       0.00000000       0.05000000 </v>
   </varray>
  </crystal>
  <varray name="positions" >
   <v>       0.08770168       0.54968182       0.50254667 </v>
   <v>       0.04584995       0.57391946       0.53236888 </v>
   <v>       0.16176141       0.59352023       0.50331735 </v>
   <v>       0.05597592       0.48044917       0.47774134 </v>
   <v>       0.30349196       0.69885317       0.47580013 </v>
   <v>       0.27610968       0.62693491       0.47648213 </v>
   <v>       0.32110220       0.59999809       0.47619185 </v>
   <v>       0.37526611       0.74377108       0.47664850 </v>
   <v>       0.39295526       0.64438945       0.47699860 </v>
   <v>       0.41973493       0.71624475       0.47633371 </v>
   <v>       0.45600151       0.85805982       0.50369366 </v>
   <v>       0.47051003       0.53313836       0.50339706 </v>
   <v>       0.44615851       0.46677844       0.53257286 </v>
   <v>       0.42651320       0.56335637       0.50402332 </v>
   <v>       0.47780313       0.03629841       0.48343202 </v>
   <v>       0.44977020       0.96444444       0.47706900 </v>
   <v>       0.65493238       0.26616179       0.54066496 </v>
   <v>       0.72671493       0.31112941       0.54129034 </v>
   <v>       0.75403252       0.38305453       0.54108232 </v>
   <v>       0.70898883       0.40991360       0.54196493 </v>
   <v>       0.63715169       0.36546351       0.54121229 </v>
   <v>       0.61042971       0.29363626       0.54157656 </v>
   <v>       0.48654370       0.93222766       0.50277278 </v>
   <v>       0.55225725       0.97373854       0.53319110 </v>
   <v>       0.58033881       0.04561860       0.53950929 </v>
   <v>       0.49016504       0.43890246       0.53918014 </v>
   <v>       0.97415536       0.52990010       0.53915182 </v>
   <v>       0.54351040       0.07783138       0.51390511 </v>
   <v>       0.57403286       0.15199762       0.51323977 </v>
   <v>       0.55967356       0.47673067       0.51527480 </v>
   <v>       0.58405503       0.54312161       0.48618096 </v>
   <v>       0.53996518       0.57085567       0.47930160 </v>
   <v>       0.60368091       0.44656786       0.51464743 </v>
   <v>       0.94241695       0.46064740       0.51436696 </v>
   <v>       0.98425774       0.43649133       0.48434511 </v>
   <v>       0.86837005       0.41672496       0.51383872 </v>
   <v>       0.12370498       0.67291461       0.55316311 </v>
   <v>       0.05238967       0.64511704       0.59974821 </v>
   <v>       0.18265281       0.64082225       0.53409010 </v>
   <v>       0.14611808       0.48798217       0.44797592 </v>
   <v>       0.07850028       0.40441136       0.45872853 </v>
   <v>       0.29905716       0.54421595       0.47229424 </v>
   <v>       0.26984013       0.72101502       0.47156054 </v>
   <v>       0.35183902       0.94269641       0.45662116 </v>
   <v>       0.47547267       0.74987016       0.47250607 </v>
   <v>       0.41411137       0.34020895       0.55692192 </v>
   <v>       0.34704390       0.44558019       0.55302061 </v>
   <v>       0.37457554       0.40139963       0.59909062 </v>
   <v>       0.37903313       0.53677149       0.53448405 </v>
   <v>       0.45774692       0.11468673       0.46081205 </v>
   <v>       0.41409166       0.04284229       0.41497272 </v>
   <v>       0.36725549       0.87446995       0.44704312 </v>
   <v>       0.73098220       0.46566510       0.54615543 </v>
   <v>       0.55471455       0.25997688       0.54559654 </v>
   <v>       0.76045528       0.28901385       0.54490012 </v>
   <v>       0.67823566       0.06723821       0.56007633 </v>
   <v>       0.66290399       0.13559855       0.56948802 </v>
   <v>       0.57239892       0.89532094       0.55550292 </v>
   <v>       0.61598685       0.96702937       0.60160303 </v>
   <v>       0.48213926       0.83692777       0.53461219 </v>
   <v>       0.49773267       0.35595463       0.56809232 </v>
   <v>       0.95161189       0.60589236       0.55850803 </v>
   <v>       0.88397551       0.52222199       0.56909808 </v>
   <v>       0.54782891       0.17329840       0.48264302 </v>
   <v>       0.68328220       0.56438047       0.46618655 </v>
   <v>       0.65594750       0.60862546       0.41992475 </v>
   <v>       0.53222116       0.65353355       0.44985635 </v>
   <v>       0.61582983       0.66951571       0.46118142 </v>
   <v>       0.65134759       0.47335420       0.48449152 </v>
   <v>       0.90645174       0.33783280       0.46230042 </v>
   <v>       0.97850786       0.36583154       0.41685141 </v>
   <v>       0.84745029       0.36938089       0.48311626 </v>
   <v>       0.07165316       0.64229406       0.55433142 </v>
   <v>       0.09378803       0.45432874       0.44675728 </v>
   <v>       0.20513207       0.57989133       0.47323137 </v>
   <v>       0.39912972       0.81481000       0.47351255 </v>
   <v>       0.44012135       0.62044554       0.47412016 </v>
   <v>       0.46392879       0.37456583       0.56916368 </v>
   <v>       0.37767019       0.42404144       0.55392902 </v>
   <v>       0.43591347       0.06252893       0.46035379 </v>
   <v>       0.38628009       0.92691276       0.44543697 </v>
   <v>       0.63099458       0.19509804       0.54339335 </v>
   <v>       0.82499845       0.43022330       0.54413297 </v>
   <v>       0.58989079       0.38927355       0.54421642 </v>
   <v>       0.64385486       0.08314729       0.57103811 </v>
   <v>       0.59407930       0.94744940       0.55623764 </v>
   <v>       0.93630891       0.55591105       0.57020888 </v>
   <v>       0.65261924       0.58587019       0.46506736 </v>
   <v>       0.56607829       0.63498040       0.44886349 </v>
   <v>       0.95853843       0.36826834       0.46199315 </v>
  </varray>
 </structure>
</modeling>
