<?xml version="1.0" encoding="ISO-8859-1"?>
<modeling>
 <generator>
  <i name="program" type="string">vasp </i>
  <i name="version" type="string">5.4.4.18Apr17-6-g9f103f2a35  </i>
  <i name="subversion" type="string">(build Jun 07 2020 16:50:00) complex            parallel </i>
  <i name="platform" type="string">LinuxIFC </i>
  <i name="date" type="string">2023 03 07 </i>
  <i name="time" type="string">08:03:46 </i>
 </generator>
 <incar>
  <i type="string" name="SYSTEM">Simulation for cell shape cell volume r</i>
  <i type="int" name="ISTART">     1</i>
  <i type="string" name="PREC">high</i>
  <i type="string" name="ALGO">48</i>
  <i type="int" name="ICHARG">    11</i>
  <i type="int" name="NELM">   200</i>
  <i type="int" name="IBRION">    -1</i>
  <i name="EDIFF">      0.00001000</i>
  <i name="EDIFFG">     -0.01000000</i>
  <i type="int" name="NSW">     0</i>
  <i type="int" name="ISIF">     2</i>
  <i name="ENCUT">    500.00000000</i>
  <i name="POTIM">      0.30000000</i>
  <i type="string" name="LREAL">A</i>
  <i type="int" name="ISMEAR">     0</i>
  <i name="SIGMA">      0.01000000</i>
  <i type="int" name="NWRITE">     0</i>
  <i type="logical" name="LWAVE"> F  </i>
  <i type="logical" name="LCHARG"> F  </i>
  <v type="int" name="KPOINT_BSE">    -1     0     0     0</v>
  <i type="int" name="NELM">   200</i>
  <i type="string" name="GGA">PE</i>
 </incar>
 <structure name="primitive_cell" >
  <crystal>
   <varray name="basis" >
    <v>      29.05532218      -0.02567623       0.00000000 </v>
    <v>     -14.54864582      25.19566018       0.00000000 </v>
    <v>       0.00000000       0.00000000      20.00000000 </v>
   </varray>
   <i name="volume">  14633.88939337 </i>
   <varray name="rec_basis" >
    <v>       0.03443467       0.01988350       0.00000000 </v>
    <v>       0.00003509       0.03970964       0.00000000 </v>
    <v>       0.00000000       0.00000000       0.05000000 </v>
   </varray>
  </crystal>
  <varray name="positions" >
   <v>       0.37856702      -0.46977085      -0.49625538 </v>
   <v>       0.36028349      -0.44453428       0.46538419 </v>
   <v>       0.43117906      -0.44130476      -0.48284091 </v>
   <v>       0.39117200      -0.39550551       0.44012012 </v>
   <v>       0.46083208      -0.38809980      -0.49057597 </v>
   <v>       0.45863395      -0.47037806      -0.46344145 </v>
   <v>       0.38744307       0.45279160      -0.46657452 </v>
   <v>       0.30278877      -0.46509138       0.45401108 </v>
   <v>       0.43862066      -0.36692948       0.47048688 </v>
   <v>       0.27654501       0.49285632      -0.45223671 </v>
   <v>       0.43061933       0.47374486      -0.46215892 </v>
   <v>       0.26560928      -0.49116975      -0.49481942 </v>
   <v>       0.28780460      -0.44620206       0.39806231 </v>
   <v>      -0.48570269      -0.44294395      -0.45619301 </v>
   <v>       0.31601884      -0.42742140       0.35731116 </v>
   <v>      -0.46439695      -0.39968476      -0.45601405 </v>
   <v>       0.46082734      -0.30881083       0.46357695 </v>
   <v>       0.45800935       0.44600926      -0.46013510 </v>
   <v>       0.21761861      -0.49076550      -0.49449670 </v>
   <v>       0.49602600      -0.28839470      -0.43809101 </v>
   <v>      -0.45830253      -0.47065709      -0.45420282 </v>
   <v>       0.43679572       0.40280267      -0.46299271 </v>
   <v>       0.43027009      -0.31610386       0.36329130 </v>
   <v>       0.24044671      -0.44577741       0.39841165 </v>
   <v>       0.48369040      -0.27464854      -0.48163208 </v>
   <v>       0.44655164      -0.29025507       0.40668378 </v>
   <v>      -0.48602136       0.47359893      -0.45941531 </v>
   <v>       0.19087001       0.49357089      -0.45168593 </v>
   <v>       0.20684542      -0.46425542       0.45467330 </v>
   <v>      -0.41500521      -0.44960648      -0.45249979 </v>
   <v>       0.23119229      -0.42666511       0.35794749 </v>
   <v>       0.48455284      -0.22607877      -0.47960575 </v>
   <v>       0.44732079      -0.24239435       0.40872779 </v>
   <v>      -0.45700321       0.44551834      -0.47596202 </v>
   <v>       0.17068081      -0.44291113       0.46652112 </v>
   <v>       0.46248081      -0.21174655       0.46760705 </v>
   <v>       0.49762994      -0.20177318      -0.43446357 </v>
   <v>      -0.48564156       0.39279600      -0.48827791 </v>
   <v>       0.43166122      -0.23039951       0.36693559 </v>
   <v>       0.18992905      -0.39346296       0.44222665 </v>
   <v>      -0.40366817       0.47479532      -0.48363552 </v>
   <v>       0.12666400      -0.46803649      -0.49590522 </v>
   <v>       0.44154060      -0.17505174       0.47800871 </v>
   <v>       0.39260625      -0.19411601       0.45184219 </v>
   <v>      -0.46073436       0.37417697       0.47334743 </v>
   <v>       0.17147702      -0.36472648       0.47297260 </v>
   <v>       0.22996770      -0.31374359       0.36578850 </v>
   <v>       0.24077497      -0.28822477       0.40965383 </v>
   <v>      -0.38285090       0.45226274       0.47748624 </v>
   <v>       0.20853314      -0.30669736       0.46710486 </v>
   <v>       0.28867163      -0.24103192       0.41147471 </v>
   <v>       0.10291370      -0.43922936      -0.48274711 </v>
   <v>       0.31573712      -0.22924484       0.36903882 </v>
   <v>      -0.41177309       0.40472941       0.44758857 </v>
   <v>       0.12745057      -0.38585737      -0.48917374 </v>
   <v>       0.30556683      -0.21093071       0.47072489 </v>
   <v>       0.36356848      -0.17490157       0.47994804 </v>
   <v>       0.46637952      -0.13056712      -0.48532709 </v>
   <v>       0.48115469       0.28992837      -0.44245935 </v>
   <v>       0.22142884      -0.27297528      -0.47735775 </v>
   <v>       0.03967785       0.45486972      -0.46850310 </v>
   <v>      -0.48161236       0.31680277       0.46102634 </v>
   <v>       0.26994772      -0.22503548      -0.47559067 </v>
   <v>       0.19593995      -0.28654684      -0.43322749 </v>
   <v>       0.49508599       0.27941071      -0.48742146 </v>
   <v>      -0.32483425       0.47435747       0.46852736 </v>
   <v>       0.28238217      -0.20107068      -0.43014810 </v>
   <v>       0.04579840      -0.46817210      -0.46575893 </v>
   <v>      -0.30201348      -0.49372823      -0.43173215 </v>
   <v>       0.38423878      -0.13071647      -0.48270502 </v>
   <v>      -0.44869780       0.33081644       0.36133833 </v>
   <v>       0.01755259       0.47593143      -0.46545891 </v>
   <v>       0.43759564      -0.10634931      -0.47496759 </v>
   <v>      -0.46532310       0.30236816       0.40221910 </v>
   <v>      -0.33466078       0.44696961       0.36635878 </v>
   <v>      -0.28945368       0.49523066      -0.47746322 </v>
   <v>      -0.30774575       0.46174700       0.40897843 </v>
   <v>       0.49588107       0.23171321      -0.49024694 </v>
   <v>      -0.45617439      -0.04220365      -0.46241949 </v>
   <v>       0.01760237      -0.44064753      -0.46034600 </v>
   <v>       0.03974633      -0.39738435      -0.45947868 </v>
   <v>      -0.03766001       0.44834862      -0.46611953 </v>
   <v>      -0.46465408       0.25524282       0.39936280 </v>
   <v>       0.46650049      -0.04883361      -0.46082151 </v>
   <v>       0.48260126       0.20480662      -0.44750639 </v>
   <v>      -0.05979525       0.40518127      -0.46970246 </v>
   <v>      -0.47753077      -0.02030853      -0.46138958 </v>
   <v>      -0.24099236       0.49574175      -0.47939556 </v>
   <v>      -0.48012321       0.22139919       0.45536316 </v>
   <v>      -0.25994360       0.46228308       0.40706227 </v>
   <v>      -0.44753777       0.24639606       0.35622406 </v>
   <v>      -0.03764000      -0.46824879      -0.46096417 </v>
   <v>       0.39534170      -0.04317887      -0.45665016 </v>
   <v>      -0.21561604      -0.49286575      -0.43519437 </v>
   <v>      -0.06581573       0.47607564      -0.46704521 </v>
   <v>       0.43864093      -0.02084467      -0.45808703 </v>
   <v>      -0.22797064       0.47541270       0.46468330 </v>
   <v>      -0.24903861       0.44791770       0.36295020 </v>
   <v>      -0.45026969       0.03476247      -0.46539157 </v>
   <v>      -0.45804056       0.18544071       0.46252887 </v>
   <v>      -0.05977151      -0.44712209      -0.46057740 </v>
   <v>      -0.40707459       0.05699997      -0.46952925 </v>
   <v>      -0.12270597       0.44810789      -0.48513669 </v>
   <v>       0.46590773       0.03420918      -0.46205849 </v>
   <v>      -0.41041026       0.20420264       0.43267180 </v>
   <v>      -0.14613980       0.39576887      -0.49946744 </v>
   <v>      -0.19102015       0.45434071       0.47034106 </v>
   <v>      -0.48050710       0.14221293      -0.49828240 </v>
   <v>      -0.47838705       0.06245606      -0.46883650 </v>
   <v>      -0.20922328       0.40746254       0.43886404 </v>
   <v>       0.44449019       0.05603181      -0.46366913 </v>
   <v>      -0.14735208       0.47687721      -0.49113341 </v>
   <v>      -0.33428597       0.24775979       0.35118692 </v>
   <v>      -0.19000467       0.37712889       0.46273972 </v>
   <v>      -0.37972194       0.18617037       0.45886131 </v>
   <v>      -0.24937812       0.33330180       0.35300544 </v>
   <v>      -0.21117130       0.29313556      -0.45568772 </v>
   <v>      -0.30650527       0.25706172       0.39242469 </v>
   <v>      -0.45091074       0.11874739      -0.48942102 </v>
   <v>      -0.25909869       0.30481013       0.39343839 </v>
   <v>      -0.32212280       0.22303653       0.44825881 </v>
   <v>      -0.22608052       0.31969011       0.45024101 </v>
   <v>      -0.39822201       0.14289364       0.49772026 </v>
   <v>      -0.23744715       0.28222906      -0.49896315 </v>
   <v>      -0.28549696       0.23390503      -0.49993575 </v>
   <v>      -0.29697155       0.20686872      -0.45742734 </v>
  </varray>
 </structure>
 <varray name="primitive_index" >
  <v type="int" >        1 </v>
  <v type="int" >       23 </v>
  <v type="int" >       19 </v>
  <v type="int" >        3 </v>
  <v type="int" >        2 </v>
  <v type="int" >       22 </v>
  <v type="int" >       91 </v>
  <v type="int" >       26 </v>
  <v type="int" >       24 </v>
  <v type="int" >       96 </v>
  <v type="int" >       20 </v>
  <v type="int" >       34 </v>
  <v type="int" >       29 </v>
  <v type="int" >       21 </v>
  <v type="int" >       94 </v>
  <v type="int" >       92 </v>
  <v type="int" >       25 </v>
  <v type="int" >       50 </v>
  <v type="int" >       33 </v>
  <v type="int" >       95 </v>
  <v type="int" >       73 </v>
  <v type="int" >       97 </v>
  <v type="int" >       93 </v>
  <v type="int" >       30 </v>
  <v type="int" >       31 </v>
  <v type="int" >       28 </v>
  <v type="int" >       74 </v>
  <v type="int" >      120 </v>
  <v type="int" >       60 </v>
  <v type="int" >      112 </v>
  <v type="int" >      105 </v>
  <v type="int" >       32 </v>
  <v type="int" >       27 </v>
  <v type="int" >       42 </v>
  <v type="int" >       40 </v>
  <v type="int" >       55 </v>
  <v type="int" >      117 </v>
  <v type="int" >       11 </v>
  <v type="int" >      102 </v>
  <v type="int" >        9 </v>
  <v type="int" >       10 </v>
  <v type="int" >        8 </v>
  <v type="int" >       35 </v>
  <v type="int" >        6 </v>
  <v type="int" >       43 </v>
  <v type="int" >       38 </v>
  <v type="int" >      104 </v>
  <v type="int" >       56 </v>
  <v type="int" >       41 </v>
  <v type="int" >       59 </v>
  <v type="int" >       57 </v>
  <v type="int" >       39 </v>
  <v type="int" >      103 </v>
  <v type="int" >       12 </v>
  <v type="int" >        7 </v>
  <v type="int" >       58 </v>
  <v type="int" >       37 </v>
  <v type="int" >        4 </v>
  <v type="int" >      121 </v>
  <v type="int" >       84 </v>
  <v type="int" >      100 </v>
  <v type="int" >       63 </v>
  <v type="int" >       83 </v>
  <v type="int" >      119 </v>
  <v type="int" >       85 </v>
  <v type="int" >       72 </v>
  <v type="int" >      118 </v>
  <v type="int" >       81 </v>
  <v type="int" >      126 </v>
  <v type="int" >        5 </v>
  <v type="int" >      106 </v>
  <v type="int" >       53 </v>
  <v type="int" >       36 </v>
  <v type="int" >       62 </v>
  <v type="int" >      111 </v>
  <v type="int" >       90 </v>
  <v type="int" >       69 </v>
  <v type="int" >       86 </v>
  <v type="int" >       98 </v>
  <v type="int" >       80 </v>
  <v type="int" >      115 </v>
  <v type="int" >       54 </v>
  <v type="int" >       61 </v>
  <v type="int" >       77 </v>
  <v type="int" >      122 </v>
  <v type="int" >      101 </v>
  <v type="int" >       51 </v>
  <v type="int" >       89 </v>
  <v type="int" >       64 </v>
  <v type="int" >       70 </v>
  <v type="int" >      107 </v>
  <v type="int" >       79 </v>
  <v type="int" >      113 </v>
  <v type="int" >      125 </v>
  <v type="int" >       82 </v>
  <v type="int" >       76 </v>
  <v type="int" >       71 </v>
  <v type="int" >      110 </v>
  <v type="int" >       52 </v>
  <v type="int" >       44 </v>
  <v type="int" >      116 </v>
  <v type="int" >       99 </v>
  <v type="int" >       48 </v>
  <v type="int" >       75 </v>
  <v type="int" >       15 </v>
  <v type="int" >       16 </v>
  <v type="int" >       49 </v>
  <v type="int" >       13 </v>
  <v type="int" >       78 </v>
  <v type="int" >       18 </v>
  <v type="int" >      114 </v>
  <v type="int" >       17 </v>
  <v type="int" >      108 </v>
  <v type="int" >       47 </v>
  <v type="int" >       46 </v>
  <v type="int" >      109 </v>
  <v type="int" >      124 </v>
  <v type="int" >       66 </v>
  <v type="int" >       45 </v>
  <v type="int" >       65 </v>
  <v type="int" >       67 </v>
  <v type="int" >       68 </v>
  <v type="int" >       14 </v>
  <v type="int" >       88 </v>
  <v type="int" >       87 </v>
  <v type="int" >      123 </v>
 </varray>
 <kpoints>
  <generation param="listgenerated">
   <i name="divisions" type="int">      20 </i>
   <v>       0.00000000       0.00000000       0.00000000 </v>
   <v>       0.50000000       0.00000000       0.00000000 </v>
   <v>       0.33333333       0.33333333       0.00000000 </v>
   <v>       0.00000000       0.00000000       0.00000000 </v>
  </generation>
  <varray name="kpointlist" >
   <v>       0.00000000       0.00000000       0.00000000 </v>
   <v>       0.02631579       0.00000000       0.00000000 </v>
   <v>       0.05263158       0.00000000       0.00000000 </v>
   <v>       0.07894737       0.00000000       0.00000000 </v>
   <v>       0.10526316       0.00000000       0.00000000 </v>
   <v>       0.13157895       0.00000000       0.00000000 </v>
   <v>       0.15789474       0.00000000       0.00000000 </v>
   <v>       0.18421053       0.00000000       0.00000000 </v>
   <v>       0.21052632       0.00000000       0.00000000 </v>
   <v>       0.23684211       0.00000000       0.00000000 </v>
   <v>       0.26315789       0.00000000       0.00000000 </v>
   <v>       0.28947368       0.00000000       0.00000000 </v>
   <v>       0.31578947       0.00000000       0.00000000 </v>
   <v>       0.34210526       0.00000000       0.00000000 </v>
   <v>       0.36842105       0.00000000       0.00000000 </v>
   <v>       0.39473684       0.00000000       0.00000000 </v>
   <v>       0.42105263       0.00000000       0.00000000 </v>
   <v>       0.44736842       0.00000000       0.00000000 </v>
   <v>       0.47368421       0.00000000       0.00000000 </v>
   <v>       0.50000000       0.00000000       0.00000000 </v>
   <v>       0.50000000       0.00000000       0.00000000 </v>
   <v>       0.49122807       0.01754386       0.00000000 </v>
   <v>       0.48245614       0.03508772       0.00000000 </v>
   <v>       0.47368421       0.05263158       0.00000000 </v>
   <v>       0.46491228       0.07017544       0.00000000 </v>
   <v>       0.45614035       0.08771930       0.00000000 </v>
   <v>       0.44736842       0.10526316       0.00000000 </v>
   <v>       0.43859649       0.12280702       0.00000000 </v>
   <v>       0.42982456       0.14035088       0.00000000 </v>
   <v>       0.42105263       0.15789474       0.00000000 </v>
   <v>       0.41228070       0.17543860       0.00000000 </v>
   <v>       0.40350877       0.19298246       0.00000000 </v>
   <v>       0.39473684       0.21052632       0.00000000 </v>
   <v>       0.38596491       0.22807018       0.00000000 </v>
   <v>       0.37719298       0.24561404       0.00000000 </v>
   <v>       0.36842105       0.26315789       0.00000000 </v>
   <v>       0.35964912       0.28070175       0.00000000 </v>
   <v>       0.35087719       0.29824561       0.00000000 </v>
   <v>       0.34210526       0.31578947       0.00000000 </v>
   <v>       0.33333333       0.33333333       0.00000000 </v>
   <v>       0.33333333       0.33333333       0.00000000 </v>
   <v>       0.31578947       0.31578947       0.00000000 </v>
   <v>       0.29824561       0.29824561       0.00000000 </v>
   <v>       0.28070175       0.28070175       0.00000000 </v>
   <v>       0.26315789       0.26315789       0.00000000 </v>
   <v>       0.24561404       0.24561404       0.00000000 </v>
   <v>       0.22807018       0.22807018       0.00000000 </v>
   <v>       0.21052632       0.21052632       0.00000000 </v>
   <v>       0.19298246       0.19298246       0.00000000 </v>
   <v>       0.17543860       0.17543860       0.00000000 </v>
   <v>       0.15789474       0.15789474       0.00000000 </v>
   <v>       0.14035088       0.14035088       0.00000000 </v>
   <v>       0.12280702       0.12280702       0.00000000 </v>
   <v>       0.10526316       0.10526316       0.00000000 </v>
   <v>       0.08771930       0.08771930       0.00000000 </v>
   <v>       0.07017544       0.07017544       0.00000000 </v>
   <v>       0.05263158       0.05263158       0.00000000 </v>
   <v>       0.03508772       0.03508772       0.00000000 </v>
   <v>       0.01754386       0.01754386       0.00000000 </v>
   <v>       0.00000000       0.00000000       0.00000000 </v>
  </varray>
  <varray name="weights" >
   <v>       0.01666667 </v>
   <v>       0.01666667 </v>
   <v>       0.01666667 </v>
   <v>       0.01666667 </v>
   <v>       0.01666667 </v>
   <v>       0.01666667 </v>
   <v>       0.01666667 </v>
   <v>       0.01666667 </v>
   <v>       0.01666667 </v>
   <v>       0.01666667 </v>
   <v>       0.01666667 </v>
   <v>       0.01666667 </v>
   <v>       0.01666667 </v>
   <v>       0.01666667 </v>
   <v>       0.01666667 </v>
   <v>       0.01666667 </v>
   <v>       0.01666667 </v>
   <v>       0.01666667 </v>
   <v>       0.01666667 </v>
   <v>       0.01666667 </v>
   <v>       0.01666667 </v>
   <v>       0.01666667 </v>
   <v>       0.01666667 </v>
   <v>       0.01666667 </v>
   <v>       0.01666667 </v>
   <v>       0.01666667 </v>
   <v>       0.01666667 </v>
   <v>       0.01666667 </v>
   <v>       0.01666667 </v>
   <v>       0.01666667 </v>
   <v>       0.01666667 </v>
   <v>       0.01666667 </v>
   <v>       0.01666667 </v>
   <v>       0.01666667 </v>
   <v>       0.01666667 </v>
   <v>       0.01666667 </v>
   <v>       0.01666667 </v>
   <v>       0.01666667 </v>
   <v>       0.01666667 </v>
   <v>       0.01666667 </v>
   <v>       0.01666667 </v>
   <v>       0.01666667 </v>
   <v>       0.01666667 </v>
   <v>       0.01666667 </v>
   <v>       0.01666667 </v>
   <v>       0.01666667 </v>
   <v>       0.01666667 </v>
   <v>       0.01666667 </v>
   <v>       0.01666667 </v>
   <v>       0.01666667 </v>
   <v>       0.01666667 </v>
   <v>       0.01666667 </v>
   <v>       0.01666667 </v>
   <v>       0.01666667 </v>
   <v>       0.01666667 </v>
   <v>       0.01666667 </v>
   <v>       0.01666667 </v>
   <v>       0.01666667 </v>
   <v>       0.01666667 </v>
   <v>       0.01666667 </v>
  </varray>
 </kpoints>
 <parameters>
  <separator name="general" >
   <i type="string" name="SYSTEM">Simulation for cell shape cell volume r</i>
   <i type="logical" name="LCOMPAT"> F  </i>
  </separator>
  <separator name="electronic" >
   <i type="string" name="PREC">high</i>
   <i name="ENMAX">    500.00000000</i>
   <i name="ENAUG">    644.87300000</i>
   <i name="EDIFF">      0.00001000</i>
   <i type="int" name="IALGO">    38</i>
   <i type="int" name="IWAVPR">    10</i>
   <i type="int" name="NBANDS">   272</i>
   <i name="NELECT">    414.00000000</i>
   <i type="int" name="TURBO">     0</i>
   <i type="int" name="IRESTART">     0</i>
   <i type="int" name="NREBOOT">     0</i>
   <i type="int" name="NMIN">     0</i>
   <i name="EREF">      0.00000000</i>
   <separator name="electronic smearing" >
    <i type="int" name="ISMEAR">     0</i>
    <i name="SIGMA">      0.01000000</i>
    <i name="KSPACING">      0.50000000</i>
    <i type="logical" name="KGAMMA"> T  </i>
   </separator>
   <separator name="electronic projectors" >
    <i type="logical" name="LREAL"> T  </i>
    <v name="ROPT">     -0.00040000     -0.00040000     -0.00040000</v>
    <i type="int" name="LMAXPAW">  -100</i>
    <i type="int" name="LMAXMIX">     2</i>
    <i type="logical" name="NLSPLINE"> F  </i>
   </separator>
   <separator name="electronic startup" >
    <i type="int" name="ISTART">     1</i>
    <i type="int" name="ICHARG">    11</i>
    <i type="int" name="INIWAV">     1</i>
   </separator>
   <separator name="electronic spin" >
    <i type="int" name="ISPIN">     1</i>
    <i type="logical" name="LNONCOLLINEAR"> F  </i>
    <v name="MAGMOM">      1.00000000      1.00000000      1.00000000      1.00000000      1.00000000      1.00000000      1.00000000      1.00000000      1.00000000      1.00000000      1.00000000      1.00000000      1.00000000      1.00000000      1.00000000      1.00000000      1.00000000      1.00000000      1.00000000      1.00000000
      1.00000000      1.00000000      1.00000000      1.00000000      1.00000000      1.00000000      1.00000000      1.00000000      1.00000000      1.00000000      1.00000000      1.00000000      1.00000000      1.00000000      1.00000000      1.00000000      1.00000000      1.00000000      1.00000000      1.00000000
      1.00000000      1.00000000      1.00000000      1.00000000      1.00000000      1.00000000      1.00000000      1.00000000      1.00000000      1.00000000      1.00000000      1.00000000      1.00000000      1.00000000      1.00000000      1.00000000      1.00000000      1.00000000      1.00000000      1.00000000
      1.00000000      1.00000000      1.00000000      1.00000000      1.00000000      1.00000000      1.00000000      1.00000000      1.00000000      1.00000000      1.00000000      1.00000000      1.00000000      1.00000000      1.00000000      1.00000000      1.00000000      1.00000000      1.00000000      1.00000000
      1.00000000      1.00000000      1.00000000      1.00000000      1.00000000      1.00000000      1.00000000      1.00000000      1.00000000      1.00000000      1.00000000      1.00000000      1.00000000      1.00000000      1.00000000      1.00000000      1.00000000      1.00000000      1.00000000      1.00000000
      1.00000000      1.00000000      1.00000000      1.00000000      1.00000000      1.00000000      1.00000000      1.00000000      1.00000000      1.00000000      1.00000000      1.00000000      1.00000000      1.00000000      1.00000000      1.00000000      1.00000000      1.00000000      1.00000000      1.00000000
      1.00000000      1.00000000      1.00000000      1.00000000      1.00000000      1.00000000</v>
    <i name="NUPDOWN">     -1.00000000</i>
    <i type="logical" name="LSORBIT"> F  </i>
    <v name="SAXIS">      0.00000000      0.00000000      1.00000000</v>
    <i type="logical" name="LSPIRAL"> F  </i>
    <v name="QSPIRAL">      0.00000000      0.00000000      0.00000000</v>
    <i type="logical" name="LZEROZ"> F  </i>
   </separator>
   <separator name="electronic exchange-correlation" >
    <i type="logical" name="LASPH"> F  </i>
    <i type="logical" name="LMETAGGA"> F  </i>
   </separator>
   <separator name="electronic convergence" >
    <i type="int" name="NELM">   200</i>
    <i type="int" name="NELMDL">     0</i>
    <i type="int" name="NELMIN">     2</i>
    <i name="ENINI">    500.00000000</i>
    <separator name="electronic convergence detail" >
     <i type="logical" name="LDIAG"> T  </i>
     <i type="logical" name="LSUBROT"> F  </i>
     <i name="WEIMIN">      0.00000000</i>
     <i name="EBREAK">      0.00000001</i>
     <i name="DEPER">      0.30000000</i>
     <i type="int" name="NRMM">     4</i>
     <i name="TIME">      0.40000000</i>
    </separator>
   </separator>
   <separator name="electronic mixer" >
    <i name="AMIX">      0.40000000</i>
    <i name="BMIX">      1.00000000</i>
    <i name="AMIN">      0.10000000</i>
    <i name="AMIX_MAG">      1.60000000</i>
    <i name="BMIX_MAG">      1.00000000</i>
    <separator name="electronic mixer details" >
     <i type="int" name="IMIX">     4</i>
     <i type="logical" name="MIXFIRST"> F  </i>
     <i type="int" name="MAXMIX">   -45</i>
     <i name="WC">    100.00000000</i>
     <i type="int" name="INIMIX">     1</i>
     <i type="int" name="MIXPRE">     1</i>
     <i type="int" name="MREMOVE">     5</i>
    </separator>
   </separator>
   <separator name="electronic dipolcorrection" >
    <i type="logical" name="LDIPOL"> F  </i>
    <i type="logical" name="LMONO"> F  </i>
    <i type="int" name="IDIPOL">     0</i>
    <i name="EPSILON">      1.00000000</i>
    <v name="DIPOL">   -100.00000000   -100.00000000   -100.00000000</v>
    <i name="EFIELD">      0.00000000</i>
   </separator>
  </separator>
  <separator name="grids" >
   <i type="int" name="NGX">   216</i>
   <i type="int" name="NGY">   216</i>
   <i type="int" name="NGZ">   150</i>
   <i type="int" name="NGXF">   320</i>
   <i type="int" name="NGYF">   324</i>
   <i type="int" name="NGZF">   224</i>
   <i type="logical" name="ADDGRID"> F  </i>
  </separator>
  <separator name="ionic" >
   <i type="int" name="NSW">     0</i>
   <i type="int" name="IBRION">    -1</i>
   <i type="int" name="MDALGO">     0</i>
   <i type="int" name="ISIF">     2</i>
   <i name="PSTRESS">      0.00000000</i>
   <i name="EDIFFG">     -0.01000000</i>
   <i type="int" name="NFREE">     0</i>
   <i name="POTIM">      0.30000000</i>
   <i name="SMASS">     -3.00000000</i>
   <i name="SCALEE">      1.00000000</i>
  </separator>
  <separator name="ionic md" >
   <i name="TEBEG">      0.00010000</i>
   <i name="TEEND">      0.00010000</i>
   <i type="int" name="NBLOCK">     1</i>
   <i type="int" name="KBLOCK">     1</i>
   <i type="int" name="NPACO">   256</i>
   <i name="APACO">     16.00000000</i>
  </separator>
  <separator name="symmetry" >
   <i type="int" name="ISYM">     2</i>
   <i name="SYMPREC">      0.00001000</i>
  </separator>
  <separator name="dos" >
   <i type="int" name="LORBIT">     0</i>
   <v name="RWIGS">     -1.00000000     -1.00000000     -1.00000000</v>
   <i type="int" name="NEDOS">   301</i>
   <i name="EMIN">     10.00000000</i>
   <i name="EMAX">    -10.00000000</i>
   <i name="EFERMI">      0.00000000</i>
  </separator>
  <separator name="writing" >
   <i type="int" name="NWRITE">     0</i>
   <i type="logical" name="LWAVE"> F  </i>
   <i type="logical" name="LDOWNSAMPLE"> F  </i>
   <i type="logical" name="LCHARG"> F  </i>
   <i type="logical" name="LPARD"> F  </i>
   <i type="logical" name="LVTOT"> F  </i>
   <i type="logical" name="LVHAR"> F  </i>
   <i type="logical" name="LELF"> F  </i>
   <i type="logical" name="LOPTICS"> F  </i>
   <v name="STM">      0.00000000      0.00000000      0.00000000      0.00000000      0.00000000      0.00000000      0.00000000</v>
  </separator>
  <separator name="performance" >
   <i type="int" name="NPAR">    16</i>
   <i type="int" name="NSIM">     4</i>
   <i type="int" name="NBLK">    -1</i>
   <i type="logical" name="LPLANE"> T  </i>
   <i type="logical" name="LSCALAPACK"> T  </i>
   <i type="logical" name="LSCAAWARE"> F  </i>
   <i type="logical" name="LSCALU"> F  </i>
   <i type="logical" name="LASYNC"> F  </i>
   <i type="logical" name="LORBITALREAL"> F  </i>
  </separator>
  <separator name="miscellaneous" >
   <i type="int" name="IDIOT">     3</i>
   <i type="int" name="ISPECIAL">     0</i>
   <i type="logical" name="LMUSIC"> F  </i>
   <v name="POMASS">     14.00100000     12.01100000      1.00000000</v>
   <v name="DARWINR">      0.00000000      0.00000000      0.00000000</v>
   <v name="DARWINV">      1.00000000      1.00000000      1.00000000</v>
   <i type="logical" name="LCORR"> T  </i>
  </separator>
  <i type="logical" name="GGA_COMPAT"> T  </i>
  <i type="logical" name="LBERRY"> F  </i>
  <i type="int" name="ICORELEVEL">     0</i>
  <i type="logical" name="LDAU"> F  </i>
  <i type="int" name="I_CONSTRAINED_M">     0</i>
  <separator name="electronic exchange-correlation" >
   <i type="string" name="GGA">PE</i>
   <i type="int" name="VOSKOWN">     0</i>
   <i type="logical" name="LHFCALC"> F  </i>
   <i type="string" name="PRECFOCK"></i>
   <i type="logical" name="LSYMGRAD"> F  </i>
   <i type="logical" name="LHFONE"> F  </i>
   <i type="logical" name="LRHFCALC"> F  </i>
   <i type="logical" name="LTHOMAS"> F  </i>
   <i type="logical" name="LMODELHF"> F  </i>
   <i name="ENCUT4O">     -1.00000000</i>
   <i type="int" name="EXXOEP">     0</i>
   <i type="int" name="FOURORBIT">     0</i>
   <i name="AEXX">      0.00000000</i>
   <i name="HFALPHA">      0.00000000</i>
   <i name="MCALPHA">      0.00000000</i>
   <i name="ALDAX">      1.00000000</i>
   <i name="AGGAX">      1.00000000</i>
   <i name="ALDAC">      1.00000000</i>
   <i name="AGGAC">      1.00000000</i>
   <i type="int" name="NKREDX">     1</i>
   <i type="int" name="NKREDY">     1</i>
   <i type="int" name="NKREDZ">     1</i>
   <i type="logical" name="SHIFTRED"> F  </i>
   <i type="logical" name="ODDONLY"> F  </i>
   <i type="logical" name="EVENONLY"> F  </i>
   <i type="int" name="LMAXFOCK">     0</i>
   <i type="int" name="NMAXFOCKAE">     0</i>
   <i type="logical" name="LFOCKAEDFT"> F  </i>
   <i name="HFSCREEN">      0.00000000</i>
   <i name="HFSCREENC">      0.00000000</i>
   <i type="int" name="NBANDSGWLOW">     0</i>
  </separator>
  <separator name="vdW DFT" >
   <i type="logical" name="LUSE_VDW"> F  </i>
   <i name="Zab_VDW">     -0.84910000</i>
   <i name="PARAM1">      0.12340000</i>
   <i name="PARAM2">      1.00000000</i>
   <i name="PARAM3">      0.00000000</i>
  </separator>
  <separator name="model GW" >
   <i type="int" name="MODEL_GW">     0</i>
   <i name="MODEL_EPS0">     69.68518759</i>
   <i name="MODEL_ALPHA">      1.00000000</i>
  </separator>
  <separator name="linear response parameters" >
   <i type="logical" name="LEPSILON"> F  </i>
   <i type="logical" name="LRPA"> F  </i>
   <i type="logical" name="LNABLA"> F  </i>
   <i type="logical" name="LVEL"> F  </i>
   <i type="int" name="KINTER">     0</i>
   <i name="CSHIFT">      0.10000000</i>
   <i name="OMEGAMAX">     -1.00000000</i>
   <i name="DEG_THRESHOLD">      0.00200000</i>
   <i name="RTIME">     -0.10000000</i>
   <i name="WPLASMAI">      0.00000000</i>
   <v name="DFIELD">      0.00000000      0.00000000      0.00000000</v>
   <v name="WPLASMA">      0.00000000      0.00000000      0.00000000      0.00000000      0.00000000      0.00000000      0.00000000      0.00000000      0.00000000</v>
  </separator>
  <separator name="orbital magnetization" >
   <i type="logical" name="NUCIND"> F  </i>
   <v name="MAGPOS">      0.00000000      0.00000000      0.00000000</v>
   <i type="logical" name="LNICSALL"> T  </i>
   <i type="logical" name="ORBITALMAG"> F  </i>
   <i type="logical" name="LMAGBLOCH"> F  </i>
   <i type="logical" name="LCHIMAG"> F  </i>
   <i type="logical" name="LGAUGE"> T  </i>
   <i type="int" name="MAGATOM">     0</i>
   <v name="MAGDIPOL">      0.00000000      0.00000000      0.00000000</v>
   <v name="AVECCONST">      0.00000000      0.00000000      0.00000000</v>
  </separator>
  <separator name="response functions" >
   <i type="logical" name="LADDER"> F  </i>
   <i type="logical" name="LRPAFORCE"> F  </i>
   <i type="logical" name="LFXC"> F  </i>
   <i type="logical" name="LHARTREE"> T  </i>
   <i type="int" name="IBSE">     0</i>
   <v type="int" name="KPOINT">    -1     0     0     0</v>
   <i type="logical" name="LTCTE"> F  </i>
   <i type="logical" name="LTETE"> F  </i>
   <i type="logical" name="LTRIPLET"> F  </i>
   <i type="logical" name="LFXCEPS"> F  </i>
   <i type="logical" name="LFXHEG"> F  </i>
   <i type="int" name="NATURALO">     2</i>
   <i type="logical" name="L2ORDER"> F  </i>
   <i type="logical" name="LMP2LT"> F  </i>
   <i type="logical" name="LUSEW"> F  </i>
   <i name="ENCUTGW">     -2.00000000</i>
   <i name="ENCUTGWSOFT">     -2.00000000</i>
   <i name="ENCUTLF">     -1.00000000</i>
   <i type="int" name="LMAXMP2">    -1</i>
   <i name="SCISSOR">      0.00000000</i>
   <i type="int" name="NOMEGA">     0</i>
   <i type="int" name="NOMEGAR">     0</i>
   <i type="int" name="NBANDSGW">    -1</i>
   <i type="int" name="NBANDSO">    -1</i>
   <i type="int" name="NBANDSV">    -1</i>
   <i type="int" name="NELM">   200</i>
   <i type="int" name="NELMHF">     1</i>
   <i type="int" name="DIM">     3</i>
   <i type="int" name="ANTIRES">     0</i>
   <i name="OMEGAMAX">    -30.00000000</i>
   <i name="OMEGAMIN">    -30.00000000</i>
   <i name="OMEGATL">   -200.00000000</i>
   <i type="int" name="OMEGAGRID">   140</i>
   <i name="CSHIFT">     -0.10000000</i>
   <i type="logical" name="SELFENERGY"> F  </i>
   <i type="logical" name="LSPECTRAL"> F  </i>
   <i type="logical" name="LSPECTRALGW"> F  </i>
   <i type="logical" name="LSINGLES"> F  </i>
   <i type="logical" name="LFERMIGW"> F  </i>
   <i type="logical" name="ODDONLYGW"> F  </i>
   <i type="logical" name="EVENONLYGW"> F  </i>
   <i type="int" name="NKREDLFX">     1</i>
   <i type="int" name="NKREDLFY">     1</i>
   <i type="int" name="NKREDLFZ">     1</i>
   <i type="int" name="MAXMEM">  2800</i>
   <i type="int" name="TELESCOPE">     0</i>
   <i type="int" name="TAUPAR">     1</i>
   <i type="int" name="OMEGAPAR">    -1</i>
   <i name="LAMBDA">      1.00000000</i>
  </separator>
  <separator name="External order field" >
   <i name="OFIELD_KAPPA">      0.00000000</i>
   <v name="OFIELD_K">      0.00000000      0.00000000      0.00000000</v>
   <i name="OFIELD_Q6_NEAR">      0.00000000</i>
   <i name="OFIELD_Q6_FAR">      0.00000000</i>
   <i name="OFIELD_A">      0.00000000</i>
  </separator>
  <separator name="solvation model" >
   <i type="logical" name="LSOL"> F  </i>
  </separator>
 </parameters>
 <atominfo>
  <atoms>     126 </atoms>
  <types>       3 </types>
  <array name="atoms" >
   <dimension dim="1">ion</dimension>
   <field type="string">element</field>
   <field type="int">atomtype</field>
   <set>
    <rc><c>N </c><c>   1</c></rc>
    <rc><c>N </c><c>   1</c></rc>
    <rc><c>N </c><c>   1</c></rc>
    <rc><c>N </c><c>   1</c></rc>
    <rc><c>N </c><c>   1</c></rc>
    <rc><c>N </c><c>   1</c></rc>
    <rc><c>N </c><c>   1</c></rc>
    <rc><c>N </c><c>   1</c></rc>
    <rc><c>N </c><c>   1</c></rc>
    <rc><c>N </c><c>   1</c></rc>
    <rc><c>N </c><c>   1</c></rc>
    <rc><c>N </c><c>   1</c></rc>
    <rc><c>N </c><c>   1</c></rc>
    <rc><c>N </c><c>   1</c></rc>
    <rc><c>N </c><c>   1</c></rc>
    <rc><c>N </c><c>   1</c></rc>
    <rc><c>N </c><c>   1</c></rc>
    <rc><c>N </c><c>   1</c></rc>
    <rc><c>C </c><c>   2</c></rc>
    <rc><c>C </c><c>   2</c></rc>
    <rc><c>C </c><c>   2</c></rc>
    <rc><c>C </c><c>   2</c></rc>
    <rc><c>C </c><c>   2</c></rc>
    <rc><c>C </c><c>   2</c></rc>
    <rc><c>C </c><c>   2</c></rc>
    <rc><c>C </c><c>   2</c></rc>
    <rc><c>C </c><c>   2</c></rc>
    <rc><c>C </c><c>   2</c></rc>
    <rc><c>C </c><c>   2</c></rc>
    <rc><c>C </c><c>   2</c></rc>
    <rc><c>C </c><c>   2</c></rc>
    <rc><c>C </c><c>   2</c></rc>
    <rc><c>C </c><c>   2</c></rc>
    <rc><c>C </c><c>   2</c></rc>
    <rc><c>C </c><c>   2</c></rc>
    <rc><c>C </c><c>   2</c></rc>
    <rc><c>C </c><c>   2</c></rc>
    <rc><c>C </c><c>   2</c></rc>
    <rc><c>C </c><c>   2</c></rc>
    <rc><c>C </c><c>   2</c></rc>
    <rc><c>C </c><c>   2</c></rc>
    <rc><c>C </c><c>   2</c></rc>
    <rc><c>C </c><c>   2</c></rc>
    <rc><c>C </c><c>   2</c></rc>
    <rc><c>C </c><c>   2</c></rc>
    <rc><c>C </c><c>   2</c></rc>
    <rc><c>C </c><c>   2</c></rc>
    <rc><c>C </c><c>   2</c></rc>
    <rc><c>C </c><c>   2</c></rc>
    <rc><c>C </c><c>   2</c></rc>
    <rc><c>C </c><c>   2</c></rc>
    <rc><c>C </c><c>   2</c></rc>
    <rc><c>C </c><c>   2</c></rc>
    <rc><c>C </c><c>   2</c></rc>
    <rc><c>C </c><c>   2</c></rc>
    <rc><c>C </c><c>   2</c></rc>
    <rc><c>C </c><c>   2</c></rc>
    <rc><c>C </c><c>   2</c></rc>
    <rc><c>C </c><c>   2</c></rc>
    <rc><c>C </c><c>   2</c></rc>
    <rc><c>C </c><c>   2</c></rc>
    <rc><c>C </c><c>   2</c></rc>
    <rc><c>C </c><c>   2</c></rc>
    <rc><c>C </c><c>   2</c></rc>
    <rc><c>C </c><c>   2</c></rc>
    <rc><c>C </c><c>   2</c></rc>
    <rc><c>C </c><c>   2</c></rc>
    <rc><c>C </c><c>   2</c></rc>
    <rc><c>C </c><c>   2</c></rc>
    <rc><c>C </c><c>   2</c></rc>
    <rc><c>C </c><c>   2</c></rc>
    <rc><c>C </c><c>   2</c></rc>
    <rc><c>C </c><c>   2</c></rc>
    <rc><c>C </c><c>   2</c></rc>
    <rc><c>C </c><c>   2</c></rc>
    <rc><c>C </c><c>   2</c></rc>
    <rc><c>C </c><c>   2</c></rc>
    <rc><c>C </c><c>   2</c></rc>
    <rc><c>C </c><c>   2</c></rc>
    <rc><c>C </c><c>   2</c></rc>
    <rc><c>C </c><c>   2</c></rc>
    <rc><c>C </c><c>   2</c></rc>
    <rc><c>C </c><c>   2</c></rc>
    <rc><c>C </c><c>   2</c></rc>
    <rc><c>C </c><c>   2</c></rc>
    <rc><c>C </c><c>   2</c></rc>
    <rc><c>C </c><c>   2</c></rc>
    <rc><c>C </c><c>   2</c></rc>
    <rc><c>C </c><c>   2</c></rc>
    <rc><c>C </c><c>   2</c></rc>
    <rc><c>H </c><c>   3</c></rc>
    <rc><c>H </c><c>   3</c></rc>
    <rc><c>H </c><c>   3</c></rc>
    <rc><c>H </c><c>   3</c></rc>
    <rc><c>H </c><c>   3</c></rc>
    <rc><c>H </c><c>   3</c></rc>
    <rc><c>H </c><c>   3</c></rc>
    <rc><c>H </c><c>   3</c></rc>
    <rc><c>H </c><c>   3</c></rc>
    <rc><c>H </c><c>   3</c></rc>
    <rc><c>H </c><c>   3</c></rc>
    <rc><c>H </c><c>   3</c></rc>
    <rc><c>H </c><c>   3</c></rc>
    <rc><c>H </c><c>   3</c></rc>
    <rc><c>H </c><c>   3</c></rc>
    <rc><c>H </c><c>   3</c></rc>
    <rc><c>H </c><c>   3</c></rc>
    <rc><c>H </c><c>   3</c></rc>
    <rc><c>H </c><c>   3</c></rc>
    <rc><c>H </c><c>   3</c></rc>
    <rc><c>H </c><c>   3</c></rc>
    <rc><c>H </c><c>   3</c></rc>
    <rc><c>H </c><c>   3</c></rc>
    <rc><c>H </c><c>   3</c></rc>
    <rc><c>H </c><c>   3</c></rc>
    <rc><c>H </c><c>   3</c></rc>
    <rc><c>H </c><c>   3</c></rc>
    <rc><c>H </c><c>   3</c></rc>
    <rc><c>H </c><c>   3</c></rc>
    <rc><c>H </c><c>   3</c></rc>
    <rc><c>H </c><c>   3</c></rc>
    <rc><c>H </c><c>   3</c></rc>
    <rc><c>H </c><c>   3</c></rc>
    <rc><c>H </c><c>   3</c></rc>
    <rc><c>H </c><c>   3</c></rc>
    <rc><c>H </c><c>   3</c></rc>
   </set>
  </array>
  <array name="atomtypes" >
   <dimension dim="1">type</dimension>
   <field type="int">atomspertype</field>
   <field type="string">element</field>
   <field>mass</field>
   <field>valence</field>
   <field type="string">pseudopotential</field>
   <set>
    <rc><c>  18</c><c>N </c><c>     14.00100000</c><c>      5.00000000</c><c>  PAW_PBE N 08Apr2002                   </c></rc>
    <rc><c>  72</c><c>C </c><c>     12.01100000</c><c>      4.00000000</c><c>  PAW_PBE C 08Apr2002                   </c></rc>
    <rc><c>  36</c><c>H </c><c>      1.00000000</c><c>      1.00000000</c><c>  PAW_PBE H 15Jun2001                   </c></rc>
   </set>
  </array>
 </atominfo>
 <structure name="initialpos" >
  <crystal>
   <varray name="basis" >
    <v>      29.05532218      -0.02567623       0.00000000 </v>
    <v>     -14.54864582      25.19566018       0.00000000 </v>
    <v>       0.00000000       0.00000000      20.00000000 </v>
   </varray>
   <i name="volume">  14633.88939337 </i>
   <varray name="rec_basis" >
    <v>       0.03443467       0.01988350       0.00000000 </v>
    <v>       0.00003509       0.03970964       0.00000000 </v>
    <v>       0.00000000       0.00000000       0.05000000 </v>
   </varray>
  </crystal>
  <varray name="positions" >
   <v>       0.37856702       0.53022915       0.50374462 </v>
   <v>       0.46083208       0.61190020       0.50942403 </v>
   <v>       0.39117200       0.60449449       0.44012012 </v>
   <v>       0.46637952       0.86943288       0.51467291 </v>
   <v>       0.38423878       0.86928353       0.51729498 </v>
   <v>       0.39260625       0.80588399       0.45184219 </v>
   <v>       0.12745057       0.61414263       0.51082626 </v>
   <v>       0.12666400       0.53196351       0.50409478 </v>
   <v>       0.18992905       0.60653704       0.44222665 </v>
   <v>       0.59633183       0.47479532       0.51636448 </v>
   <v>       0.51435844       0.39279600       0.51172209 </v>
   <v>       0.58822691       0.40472941       0.44758857 </v>
   <v>       0.51949290       0.14221293       0.50171760 </v>
   <v>       0.60177799       0.14289364       0.49772026 </v>
   <v>       0.58958974       0.20420264       0.43267180 </v>
   <v>       0.85386020       0.39576887       0.50053256 </v>
   <v>       0.85264792       0.47687721       0.50886659 </v>
   <v>       0.79077672       0.40746254       0.43886404 </v>
   <v>       0.43117906       0.55869524       0.51715909 </v>
   <v>       0.43061933       0.47374486       0.53784108 </v>
   <v>       0.51429731       0.55705605       0.54380699 </v>
   <v>       0.45863395       0.52962194       0.53655855 </v>
   <v>       0.36028349       0.55546572       0.46538419 </v>
   <v>       0.43862066       0.63307052       0.47048688 </v>
   <v>       0.46082734       0.69118917       0.46357695 </v>
   <v>       0.30278877       0.53490862       0.45401108 </v>
   <v>       0.44732079       0.75760565       0.40872779 </v>
   <v>       0.44655164       0.70974493       0.40668378 </v>
   <v>       0.28780460       0.55379794       0.39806231 </v>
   <v>       0.24044671       0.55422259       0.39841165 </v>
   <v>       0.48369040       0.72535146       0.51836792 </v>
   <v>       0.48455284       0.77392123       0.52039425 </v>
   <v>       0.21761861       0.50923450       0.50550330 </v>
   <v>       0.26560928       0.50883025       0.50518058 </v>
   <v>       0.44154060       0.82494826       0.47800871 </v>
   <v>       0.43759564       0.89365069       0.52503241 </v>
   <v>       0.36356848       0.82509843       0.47994804 </v>
   <v>       0.17147702       0.63527352       0.47297260 </v>
   <v>       0.10291370       0.56077064       0.51725289 </v>
   <v>       0.17068081       0.55708887       0.46652112 </v>
   <v>       0.61714910       0.45226274       0.47748624 </v>
   <v>       0.54299679       0.44551834       0.52403798 </v>
   <v>       0.53926564       0.37417697       0.47334743 </v>
   <v>       0.54195944       0.18544071       0.46252887 </v>
   <v>       0.54908926       0.11874739       0.51057898 </v>
   <v>       0.62027806       0.18617037       0.45886131 </v>
   <v>       0.80999533       0.37712889       0.46273972 </v>
   <v>       0.87729403       0.44810789       0.51486331 </v>
   <v>       0.80897985       0.45434071       0.47034106 </v>
   <v>       0.45800935       0.44600926       0.53986490 </v>
   <v>       0.52246923       0.97969147       0.53861042 </v>
   <v>       0.54973031       0.03476247       0.53460843 </v>
   <v>       0.01755259       0.47593143       0.53454109 </v>
   <v>       0.96233999       0.44834862       0.53388047 </v>
   <v>       0.46248081       0.78825345       0.46760705 </v>
   <v>       0.24077497       0.71177523       0.40965383 </v>
   <v>       0.28867163       0.75896808       0.41147471 </v>
   <v>       0.30556683       0.78906929       0.47072489 </v>
   <v>       0.20853314       0.69330264       0.46710486 </v>
   <v>       0.20684542       0.53574458       0.45467330 </v>
   <v>       0.53534592       0.25524282       0.39936280 </v>
   <v>       0.53467690       0.30236816       0.40221910 </v>
   <v>       0.51838764       0.31680277       0.46102634 </v>
   <v>       0.51987679       0.22139919       0.45536316 </v>
   <v>       0.74090131       0.30481013       0.39343839 </v>
   <v>       0.69349473       0.25706172       0.39242469 </v>
   <v>       0.67787720       0.22303653       0.44825881 </v>
   <v>       0.77391948       0.31969011       0.45024101 </v>
   <v>       0.69225425       0.46174700       0.40897843 </v>
   <v>       0.74005640       0.46228308       0.40706227 </v>
   <v>       0.77202936       0.47541270       0.46468330 </v>
   <v>       0.67516575       0.47435747       0.46852736 </v>
   <v>       0.54169747       0.52934291       0.54579718 </v>
   <v>       0.51397864       0.47359893       0.54058469 </v>
   <v>       0.46590773       0.03420918       0.53794151 </v>
   <v>       0.43864093       0.97915533       0.54191297 </v>
   <v>       0.46650049       0.95116639       0.53917849 </v>
   <v>       0.52161295       0.06245606       0.53116350 </v>
   <v>       0.96236000       0.53175121       0.53903583 </v>
   <v>       0.01760237       0.55935247       0.53965400 </v>
   <v>       0.04579840       0.53182790       0.53424107 </v>
   <v>       0.93418427       0.47607564       0.53295479 </v>
   <v>       0.26994772       0.77496452       0.52440933 </v>
   <v>       0.22142884       0.72702472       0.52264225 </v>
   <v>       0.49508599       0.27941071       0.51257854 </v>
   <v>       0.49588107       0.23171321       0.50975306 </v>
   <v>       0.71450304       0.23390503       0.50006425 </v>
   <v>       0.76255285       0.28222906       0.50103685 </v>
   <v>       0.75900764       0.49574175       0.52060444 </v>
   <v>       0.71054632       0.49523066       0.52253678 </v>
   <v>       0.38744307       0.45279160       0.53342548 </v>
   <v>       0.53560305       0.60031524       0.54398595 </v>
   <v>       0.43027009       0.68389614       0.36329130 </v>
   <v>       0.31601884       0.57257860       0.35731116 </v>
   <v>       0.49602600       0.71160530       0.56190899 </v>
   <v>       0.27654501       0.49285632       0.54776329 </v>
   <v>       0.43679572       0.40280267       0.53700729 </v>
   <v>       0.54382561       0.95779635       0.53758051 </v>
   <v>       0.59292541       0.05699997       0.53047075 </v>
   <v>       0.03967785       0.45486972       0.53149690 </v>
   <v>       0.94020475       0.40518127       0.53029754 </v>
   <v>       0.43166122       0.76960049       0.36693559 </v>
   <v>       0.31573712       0.77075516       0.36903882 </v>
   <v>       0.22996770       0.68625641       0.36578850 </v>
   <v>       0.23119229       0.57333489       0.35794749 </v>
   <v>       0.55130220       0.33081644       0.36133833 </v>
   <v>       0.55246223       0.24639606       0.35622406 </v>
   <v>       0.66571403       0.24775979       0.35118692 </v>
   <v>       0.75062188       0.33330180       0.35300544 </v>
   <v>       0.75096139       0.44791770       0.36295020 </v>
   <v>       0.66533922       0.44696961       0.36635878 </v>
   <v>       0.58499479       0.55039352       0.54750021 </v>
   <v>       0.39534170       0.95682113       0.54334984 </v>
   <v>       0.44449019       0.05603181       0.53633087 </v>
   <v>       0.03974633       0.60261565       0.54052132 </v>
   <v>       0.94022849       0.55287791       0.53942260 </v>
   <v>       0.49762994       0.79822682       0.56553643 </v>
   <v>       0.28238217       0.79892932       0.56985190 </v>
   <v>       0.19593995       0.71345316       0.56677251 </v>
   <v>       0.19087001       0.49357089       0.54831407 </v>
   <v>       0.48115469       0.28992837       0.55754065 </v>
   <v>       0.48260126       0.20480662       0.55249361 </v>
   <v>       0.70302845       0.20686872       0.54257266 </v>
   <v>       0.78882870       0.29313556       0.54431228 </v>
   <v>       0.78438396       0.50713425       0.56480563 </v>
   <v>       0.69798652       0.50627177       0.56826785 </v>
  </varray>
 </structure>
 <calculation>
  <scstep>
   <time name="dav">  361.71  365.26</time>
   <time name="total">  361.97  365.53</time>
   <energy>
    <i name="alphaZ">     55.28609346 </i>
    <i name="ewald">  54745.34905446 </i>
    <i name="hartreedc"> -67684.15187617 </i>
    <i name="XCdc">   1449.99551105 </i>
    <i name="pawpsdc">  39298.04697341 </i>
    <i name="pawaedc"> -39373.05198292 </i>
    <i name="eentropy">     -0.00000000 </i>
    <i name="bandstr">  -5221.02431328 </i>
    <i name="atom">  15805.82512633 </i>
    <i name="e_fr_energy">   -923.72541367 </i>
    <i name="e_wo_entrp">   -923.72541367 </i>
    <i name="e_0_energy">   -923.72541367 </i>
   </energy>
  </scstep>
  <scstep>
   <time name="dav">  412.61  416.66</time>
   <time name="total">  412.62  416.67</time>
   <energy>
    <i name="e_fr_energy">   -924.27507973 </i>
    <i name="e_wo_entrp">   -924.27507973 </i>
    <i name="e_0_energy">   -924.27507973 </i>
   </energy>
  </scstep>
  <scstep>
   <time name="dav">  465.18  469.71</time>
   <time name="total">  465.20  469.73</time>
   <energy>
    <i name="e_fr_energy">   -924.29022034 </i>
    <i name="e_wo_entrp">   -924.29022034 </i>
    <i name="e_0_energy">   -924.29022034 </i>
   </energy>
  </scstep>
  <scstep>
   <time name="dav">  413.99  418.03</time>
   <time name="total">  414.00  418.04</time>
   <energy>
    <i name="e_fr_energy">   -924.29040150 </i>
    <i name="e_wo_entrp">   -924.29040150 </i>
    <i name="e_0_energy">   -924.29040150 </i>
   </energy>
  </scstep>
  <scstep>
   <time name="dav">  366.74  370.33</time>
   <time name="total">  366.75  370.34</time>
   <energy>
    <i name="alphaZ">     55.28609346 </i>
    <i name="ewald">  54745.34905446 </i>
    <i name="hartreedc"> -67684.15187617 </i>
    <i name="XCdc">   1449.99551105 </i>
    <i name="pawpsdc">  39298.04697341 </i>
    <i name="pawaedc"> -39373.05198292 </i>
    <i name="eentropy">     -0.00000000 </i>
    <i name="bandstr">  -5221.58930949 </i>
    <i name="atom">  15805.82512633 </i>
    <i name="e_fr_energy">   -924.29040987 </i>
    <i name="e_wo_entrp">   -924.29040987 </i>
    <i name="e_0_energy">   -924.29040987 </i>
   </energy>
  </scstep>
  <structure>
   <crystal>
    <varray name="basis" >
     <v>      29.05532218      -0.02567623       0.00000000 </v>
     <v>     -14.54864582      25.19566018       0.00000000 </v>
     <v>       0.00000000       0.00000000      20.00000000 </v>
    </varray>
    <i name="volume">  14633.88939337 </i>
    <varray name="rec_basis" >
     <v>       0.03443467       0.01988350       0.00000000 </v>
     <v>       0.00003509       0.03970964       0.00000000 </v>
     <v>       0.00000000       0.00000000       0.05000000 </v>
    </varray>
   </crystal>
   <varray name="positions" >
    <v>       0.37856702       0.53022915       0.50374462 </v>
    <v>       0.46083208       0.61190020       0.50942403 </v>
    <v>       0.39117200       0.60449449       0.44012012 </v>
    <v>       0.46637952       0.86943288       0.51467291 </v>
    <v>       0.38423878       0.86928353       0.51729498 </v>
    <v>       0.39260625       0.80588399       0.45184219 </v>
    <v>       0.12745057       0.61414263       0.51082626 </v>
    <v>       0.12666400       0.53196351       0.50409478 </v>
    <v>       0.18992905       0.60653704       0.44222665 </v>
    <v>       0.59633183       0.47479532       0.51636448 </v>
    <v>       0.51435844       0.39279600       0.51172209 </v>
    <v>       0.58822691       0.40472941       0.44758857 </v>
    <v>       0.51949290       0.14221293       0.50171760 </v>
    <v>       0.60177799       0.14289364       0.49772026 </v>
    <v>       0.58958974       0.20420264       0.43267180 </v>
    <v>       0.85386020       0.39576887       0.50053256 </v>
    <v>       0.85264792       0.47687721       0.50886659 </v>
    <v>       0.79077672       0.40746254       0.43886404 </v>
    <v>       0.43117906       0.55869524       0.51715909 </v>
    <v>       0.43061933       0.47374486       0.53784108 </v>
    <v>       0.51429731       0.55705605       0.54380699 </v>
    <v>       0.45863395       0.52962194       0.53655855 </v>
    <v>       0.36028349       0.55546572       0.46538419 </v>
    <v>       0.43862066       0.63307052       0.47048688 </v>
    <v>       0.46082734       0.69118917       0.46357695 </v>
    <v>       0.30278877       0.53490862       0.45401108 </v>
    <v>       0.44732079       0.75760565       0.40872779 </v>
    <v>       0.44655164       0.70974493       0.40668378 </v>
    <v>       0.28780460       0.55379794       0.39806231 </v>
    <v>       0.24044671       0.55422259       0.39841165 </v>
    <v>       0.48369040       0.72535146       0.51836792 </v>
    <v>       0.48455284       0.77392123       0.52039425 </v>
    <v>       0.21761861       0.50923450       0.50550330 </v>
    <v>       0.26560928       0.50883025       0.50518058 </v>
    <v>       0.44154060       0.82494826       0.47800871 </v>
    <v>       0.43759564       0.89365069       0.52503241 </v>
    <v>       0.36356848       0.82509843       0.47994804 </v>
    <v>       0.17147702       0.63527352       0.47297260 </v>
    <v>       0.10291370       0.56077064       0.51725289 </v>
    <v>       0.17068081       0.55708887       0.46652112 </v>
    <v>       0.61714910       0.45226274       0.47748624 </v>
    <v>       0.54299679       0.44551834       0.52403798 </v>
    <v>       0.53926564       0.37417697       0.47334743 </v>
    <v>       0.54195944       0.18544071       0.46252887 </v>
    <v>       0.54908926       0.11874739       0.51057898 </v>
    <v>       0.62027806       0.18617037       0.45886131 </v>
    <v>       0.80999533       0.37712889       0.46273972 </v>
    <v>       0.87729403       0.44810789       0.51486331 </v>
    <v>       0.80897985       0.45434071       0.47034106 </v>
    <v>       0.45800935       0.44600926       0.53986490 </v>
    <v>       0.52246923       0.97969147       0.53861042 </v>
    <v>       0.54973031       0.03476247       0.53460843 </v>
    <v>       0.01755259       0.47593143       0.53454109 </v>
    <v>       0.96233999       0.44834862       0.53388047 </v>
    <v>       0.46248081       0.78825345       0.46760705 </v>
    <v>       0.24077497       0.71177523       0.40965383 </v>
    <v>       0.28867163       0.75896808       0.41147471 </v>
    <v>       0.30556683       0.78906929       0.47072489 </v>
    <v>       0.20853314       0.69330264       0.46710486 </v>
    <v>       0.20684542       0.53574458       0.45467330 </v>
    <v>       0.53534592       0.25524282       0.39936280 </v>
    <v>       0.53467690       0.30236816       0.40221910 </v>
    <v>       0.51838764       0.31680277       0.46102634 </v>
    <v>       0.51987679       0.22139919       0.45536316 </v>
    <v>       0.74090131       0.30481013       0.39343839 </v>
    <v>       0.69349473       0.25706172       0.39242469 </v>
    <v>       0.67787720       0.22303653       0.44825881 </v>
    <v>       0.77391948       0.31969011       0.45024101 </v>
    <v>       0.69225425       0.46174700       0.40897843 </v>
    <v>       0.74005640       0.46228308       0.40706227 </v>
    <v>       0.77202936       0.47541270       0.46468330 </v>
    <v>       0.67516575       0.47435747       0.46852736 </v>
    <v>       0.54169747       0.52934291       0.54579718 </v>
    <v>       0.51397864       0.47359893       0.54058469 </v>
    <v>       0.46590773       0.03420918       0.53794151 </v>
    <v>       0.43864093       0.97915533       0.54191297 </v>
    <v>       0.46650049       0.95116639       0.53917849 </v>
    <v>       0.52161295       0.06245606       0.53116350 </v>
    <v>       0.96236000       0.53175121       0.53903583 </v>
    <v>       0.01760237       0.55935247       0.53965400 </v>
    <v>       0.04579840       0.53182790       0.53424107 </v>
    <v>       0.93418427       0.47607564       0.53295479 </v>
    <v>       0.26994772       0.77496452       0.52440933 </v>
    <v>       0.22142884       0.72702472       0.52264225 </v>
    <v>       0.49508599       0.27941071       0.51257854 </v>
    <v>       0.49588107       0.23171321       0.50975306 </v>
    <v>       0.71450304       0.23390503       0.50006425 </v>
    <v>       0.76255285       0.28222906       0.50103685 </v>
    <v>       0.75900764       0.49574175       0.52060444 </v>
    <v>       0.71054632       0.49523066       0.52253678 </v>
    <v>       0.38744307       0.45279160       0.53342548 </v>
    <v>       0.53560305       0.60031524       0.54398595 </v>
    <v>       0.43027009       0.68389614       0.36329130 </v>
    <v>       0.31601884       0.57257860       0.35731116 </v>
    <v>       0.49602600       0.71160530       0.56190899 </v>
    <v>       0.27654501       0.49285632       0.54776329 </v>
    <v>       0.43679572       0.40280267       0.53700729 </v>
    <v>       0.54382561       0.95779635       0.53758051 </v>
    <v>       0.59292541       0.05699997       0.53047075 </v>
    <v>       0.03967785       0.45486972       0.53149690 </v>
    <v>       0.94020475       0.40518127       0.53029754 </v>
    <v>       0.43166122       0.76960049       0.36693559 </v>
    <v>       0.31573712       0.77075516       0.36903882 </v>
    <v>       0.22996770       0.68625641       0.36578850 </v>
    <v>       0.23119229       0.57333489       0.35794749 </v>
    <v>       0.55130220       0.33081644       0.36133833 </v>
    <v>       0.55246223       0.24639606       0.35622406 </v>
    <v>       0.66571403       0.24775979       0.35118692 </v>
    <v>       0.75062188       0.33330180       0.35300544 </v>
    <v>       0.75096139       0.44791770       0.36295020 </v>
    <v>       0.66533922       0.44696961       0.36635878 </v>
    <v>       0.58499479       0.55039352       0.54750021 </v>
    <v>       0.39534170       0.95682113       0.54334984 </v>
    <v>       0.44449019       0.05603181       0.53633087 </v>
    <v>       0.03974633       0.60261565       0.54052132 </v>
    <v>       0.94022849       0.55287791       0.53942260 </v>
    <v>       0.49762994       0.79822682       0.56553643 </v>
    <v>       0.28238217       0.79892932       0.56985190 </v>
    <v>       0.19593995       0.71345316       0.56677251 </v>
    <v>       0.19087001       0.49357089       0.54831407 </v>
    <v>       0.48115469       0.28992837       0.55754065 </v>
    <v>       0.48260126       0.20480662       0.55249361 </v>
    <v>       0.70302845       0.20686872       0.54257266 </v>
    <v>       0.78882870       0.29313556       0.54431228 </v>
    <v>       0.78438396       0.50713425       0.56480563 </v>
    <v>       0.69798652       0.50627177       0.56826785 </v>
   </varray>
  </structure>
  <varray name="forces" >
   <v>       0.00317413      -0.00778686      -0.00189315 </v>
   <v>       0.00458195       0.00489549       0.00257663 </v>
   <v>      -0.00455865       0.00196409      -0.00198101 </v>
   <v>      -0.00426549      -0.00338560      -0.00112467 </v>
   <v>       0.00202725       0.00203153      -0.00691296 </v>
   <v>      -0.00003159      -0.00005690       0.00283452 </v>
   <v>       0.00351076       0.00028750      -0.00152412 </v>
   <v>       0.00162731      -0.00244128      -0.00471605 </v>
   <v>       0.00413919       0.00215430       0.00045377 </v>
   <v>       0.00003359       0.00101569      -0.00245107 </v>
   <v>       0.00111921       0.00025595       0.00386019 </v>
   <v>       0.00288337      -0.00108417      -0.00190571 </v>
   <v>      -0.00142272      -0.00147369      -0.00119585 </v>
   <v>       0.00302888      -0.00015547      -0.00309775 </v>
   <v>       0.00012095       0.00362487      -0.00005194 </v>
   <v>       0.00260640       0.00057227       0.00168872 </v>
   <v>      -0.00433797      -0.00019723      -0.00042367 </v>
   <v>      -0.00011942       0.00067693      -0.00583368 </v>
   <v>       0.00069972      -0.00446129      -0.00184247 </v>
   <v>      -0.00075775       0.00056657       0.00268287 </v>
   <v>      -0.00281726      -0.00108380       0.00257898 </v>
   <v>      -0.00051682       0.00007856       0.00169424 </v>
   <v>       0.00172743       0.00520092      -0.00337363 </v>
   <v>       0.00149576      -0.00241354       0.00452171 </v>
   <v>      -0.00044603      -0.00294664       0.00380925 </v>
   <v>      -0.00045917      -0.00253895       0.00307396 </v>
   <v>       0.00118301      -0.00081023       0.00002682 </v>
   <v>      -0.00030253      -0.00192787       0.00410503 </v>
   <v>       0.00043518      -0.00088048       0.00321054 </v>
   <v>       0.00236509       0.00012233       0.00088131 </v>
   <v>      -0.00385290      -0.00086551      -0.00066843 </v>
   <v>      -0.00118714       0.00035695      -0.00461631 </v>
   <v>       0.00013235      -0.00051131       0.00122295 </v>
   <v>      -0.00034770      -0.00155572       0.00324227 </v>
   <v>       0.00176015       0.00032026      -0.00225542 </v>
   <v>       0.00286248       0.00404135      -0.00142021 </v>
   <v>      -0.00011600      -0.00313936      -0.00139004 </v>
   <v>       0.00036914       0.00626831      -0.00044577 </v>
   <v>       0.00151096      -0.00929992      -0.00301390 </v>
   <v>      -0.00271369       0.00525868      -0.00071320 </v>
   <v>       0.00087193       0.00031846       0.00105214 </v>
   <v>       0.00487502       0.00213310       0.00138335 </v>
   <v>       0.00252458      -0.00244893       0.00298932 </v>
   <v>      -0.00030102       0.00180900       0.00210700 </v>
   <v>       0.00289008      -0.00270865      -0.00119687 </v>
   <v>       0.00134591       0.00045702       0.00099986 </v>
   <v>       0.00228373      -0.00082397      -0.00325500 </v>
   <v>       0.00015318       0.00079345       0.00030334 </v>
   <v>       0.00219781       0.00388002       0.00105898 </v>
   <v>       0.00164079       0.00016729       0.00273703 </v>
   <v>      -0.00213048       0.00059718       0.00416283 </v>
   <v>       0.00016532       0.00085871       0.00344385 </v>
   <v>      -0.00198983      -0.00257356       0.00063859 </v>
   <v>      -0.00053279       0.00090704      -0.00042570 </v>
   <v>      -0.00028213       0.00180981      -0.00204849 </v>
   <v>      -0.00115307      -0.00092587       0.00180773 </v>
   <v>       0.00049971       0.00084137       0.00130987 </v>
   <v>       0.00199959      -0.00054671      -0.00083565 </v>
   <v>      -0.00203703       0.00024666      -0.00156024 </v>
   <v>      -0.00131129       0.00091753       0.00051252 </v>
   <v>      -0.00035538      -0.00035665       0.00258103 </v>
   <v>      -0.00063025      -0.00250195       0.00049122 </v>
   <v>       0.00047624       0.00100049      -0.00124085 </v>
   <v>       0.00019503       0.00213699       0.00398896 </v>
   <v>      -0.00308335      -0.00066920       0.00224743 </v>
   <v>       0.00109905       0.00035285       0.00144890 </v>
   <v>       0.00225386       0.00152157      -0.00072885 </v>
   <v>      -0.00094348       0.00002423      -0.00043644 </v>
   <v>       0.00058138       0.00261012      -0.00037504 </v>
   <v>       0.00017830       0.00057350       0.00021566 </v>
   <v>      -0.00081436      -0.00021658      -0.00057332 </v>
   <v>      -0.00193936      -0.00015633      -0.00169561 </v>
   <v>      -0.00261252      -0.00043089       0.00339811 </v>
   <v>       0.00158539      -0.00042226       0.00001217 </v>
   <v>       0.00368824       0.00324954       0.00335416 </v>
   <v>       0.00130894       0.00126518       0.00445281 </v>
   <v>      -0.00237228       0.00080313      -0.00132545 </v>
   <v>      -0.00114387       0.00069317      -0.00053239 </v>
   <v>       0.00004238       0.00073731       0.00055860 </v>
   <v>       0.00051257      -0.00027594       0.00151761 </v>
   <v>      -0.00178985      -0.00260092      -0.00093950 </v>
   <v>      -0.00204894       0.00247600       0.00028307 </v>
   <v>       0.00041935       0.00105143      -0.00381687 </v>
   <v>      -0.00191075       0.00156104      -0.00374672 </v>
   <v>      -0.00018136       0.00082153      -0.00128834 </v>
   <v>       0.00005630      -0.00094497       0.00173740 </v>
   <v>      -0.00158581      -0.00114991      -0.00001340 </v>
   <v>      -0.00303908       0.00139567       0.00226025 </v>
   <v>       0.00122345       0.00127230      -0.00219307 </v>
   <v>       0.00089419       0.00286311      -0.00222641 </v>
   <v>      -0.00100892      -0.00336676       0.00066979 </v>
   <v>       0.00152254       0.00247061       0.00036569 </v>
   <v>       0.00184168      -0.00155705       0.00214601 </v>
   <v>       0.00001587      -0.00204845       0.00398403 </v>
   <v>      -0.00118288       0.00266624      -0.00205402 </v>
   <v>      -0.00005616       0.00265681      -0.00039666 </v>
   <v>      -0.00052805       0.00054050      -0.00220378 </v>
   <v>      -0.00183902      -0.00246470      -0.00275341 </v>
   <v>       0.00171059      -0.00103860      -0.00011562 </v>
   <v>      -0.00025511      -0.00021036       0.00040536 </v>
   <v>      -0.00117298      -0.00008011       0.00039457 </v>
   <v>      -0.00084464      -0.00297231      -0.00077088 </v>
   <v>       0.00281330       0.00060796      -0.00266750 </v>
   <v>       0.00043061      -0.00052356      -0.00339835 </v>
   <v>       0.00143972       0.00007622      -0.00055490 </v>
   <v>       0.00022220      -0.00134262      -0.00032985 </v>
   <v>      -0.00106944      -0.00268559       0.00292035 </v>
   <v>      -0.00066628       0.00069402       0.00251284 </v>
   <v>      -0.00004060       0.00019910       0.00055614 </v>
   <v>      -0.00023706       0.00096166      -0.00158232 </v>
   <v>      -0.00017315      -0.00041923      -0.00168960 </v>
   <v>      -0.00029228      -0.00168481      -0.00259231 </v>
   <v>       0.00082990      -0.00030016      -0.00078394 </v>
   <v>      -0.00317835       0.00056177       0.00278912 </v>
   <v>       0.00168479      -0.00068970      -0.00051991 </v>
   <v>      -0.00165969       0.00207759       0.00003896 </v>
   <v>      -0.00278536       0.00085773      -0.00329880 </v>
   <v>      -0.00338835      -0.00371564       0.00094882 </v>
   <v>      -0.00147176      -0.00432675      -0.00767769 </v>
   <v>       0.00107762       0.00003476       0.00276073 </v>
   <v>      -0.00151530      -0.00111154       0.00125564 </v>
   <v>      -0.00047077      -0.00058659       0.00289963 </v>
   <v>      -0.00086443       0.00121629      -0.00025221 </v>
   <v>       0.00005570       0.00065734       0.00008919 </v>
   <v>      -0.00283231       0.00236480      -0.00033349 </v>
   <v>      -0.00302714      -0.00058814      -0.00297394 </v>
  </varray>
  <varray name="stress" >
   <v>       0.00263242       0.00330314      -0.00045590 </v>
   <v>       0.00330314       0.00074682       0.00450129 </v>
   <v>      -0.00045590       0.00450129      -0.17444041 </v>
  </varray>
  <energy>
   <i name="e_fr_energy">   -926.89691097 </i>
   <i name="e_wo_entrp">   -926.89691097 </i>
   <i name="e_0_energy">     -0.00000000 </i>
  </energy>
  <time name="totalsc"> 2389.29 2413.71</time>
  <eigenvalues>
   <array>
    <dimension dim="1">band</dimension>
    <dimension dim="2">kpoint</dimension>
    <dimension dim="3">spin</dimension>
    <field>eigene</field>
    <field>occ</field>
    <set>
     <set comment="spin 1">
      <set comment="kpoint 1">
       <r>  -25.3688    1.0000 </r>
       <r>  -25.3681    1.0000 </r>
       <r>  -25.3582    1.0000 </r>
       <r>  -25.3552    1.0000 </r>
       <r>  -25.3486    1.0000 </r>
       <r>  -25.3472    1.0000 </r>
       <r>  -22.4817    1.0000 </r>
       <r>  -22.4547    1.0000 </r>
       <r>  -22.4532    1.0000 </r>
       <r>  -22.4105    1.0000 </r>
       <r>  -22.4095    1.0000 </r>
       <r>  -22.4085    1.0000 </r>
       <r>  -22.3695    1.0000 </r>
       <r>  -22.3675    1.0000 </r>
       <r>  -22.3346    1.0000 </r>
       <r>  -22.3334    1.0000 </r>
       <r>  -22.3058    1.0000 </r>
       <r>  -22.3042    1.0000 </r>
       <r>  -21.2355    1.0000 </r>
       <r>  -21.1930    1.0000 </r>
       <r>  -21.1924    1.0000 </r>
       <r>  -21.1329    1.0000 </r>
       <r>  -21.1315    1.0000 </r>
       <r>  -21.0988    1.0000 </r>
       <r>  -21.0909    1.0000 </r>
       <r>  -21.0884    1.0000 </r>
       <r>  -21.0214    1.0000 </r>
       <r>  -19.2440    1.0000 </r>
       <r>  -19.2273    1.0000 </r>
       <r>  -19.0979    1.0000 </r>
       <r>  -19.0968    1.0000 </r>
       <r>  -19.0875    1.0000 </r>
       <r>  -18.9298    1.0000 </r>
       <r>  -18.9283    1.0000 </r>
       <r>  -18.8958    1.0000 </r>
       <r>  -18.8955    1.0000 </r>
       <r>  -18.4002    1.0000 </r>
       <r>  -18.3985    1.0000 </r>
       <r>  -18.3826    1.0000 </r>
       <r>  -18.3716    1.0000 </r>
       <r>  -18.3629    1.0000 </r>
       <r>  -18.3621    1.0000 </r>
       <r>  -18.3538    1.0000 </r>
       <r>  -18.3527    1.0000 </r>
       <r>  -18.3345    1.0000 </r>
       <r>  -17.3439    1.0000 </r>
       <r>  -17.3425    1.0000 </r>
       <r>  -17.2319    1.0000 </r>
       <r>  -17.0924    1.0000 </r>
       <r>  -17.0903    1.0000 </r>
       <r>  -16.8409    1.0000 </r>
       <r>  -16.8396    1.0000 </r>
       <r>  -16.4271    1.0000 </r>
       <r>  -15.8514    1.0000 </r>
       <r>  -15.7729    1.0000 </r>
       <r>  -15.7717    1.0000 </r>
       <r>  -15.7438    1.0000 </r>
       <r>  -15.6319    1.0000 </r>
       <r>  -15.1885    1.0000 </r>
       <r>  -15.0581    1.0000 </r>
       <r>  -15.0564    1.0000 </r>
       <r>  -14.9121    1.0000 </r>
       <r>  -14.8101    1.0000 </r>
       <r>  -14.8004    1.0000 </r>
       <r>  -14.7972    1.0000 </r>
       <r>  -14.7812    1.0000 </r>
       <r>  -14.7811    1.0000 </r>
       <r>  -14.4615    1.0000 </r>
       <r>  -14.4341    1.0000 </r>
       <r>  -14.4325    1.0000 </r>
       <r>  -14.0897    1.0000 </r>
       <r>  -14.0884    1.0000 </r>
       <r>  -13.9966    1.0000 </r>
       <r>  -13.8719    1.0000 </r>
       <r>  -13.8716    1.0000 </r>
       <r>  -13.4535    1.0000 </r>
       <r>  -13.4525    1.0000 </r>
       <r>  -13.2162    1.0000 </r>
       <r>  -13.1487    1.0000 </r>
       <r>  -13.1289    1.0000 </r>
       <r>  -13.1209    1.0000 </r>
       <r>  -13.1072    1.0000 </r>
       <r>  -13.0968    1.0000 </r>
       <r>  -13.0950    1.0000 </r>
       <r>  -12.8680    1.0000 </r>
       <r>  -12.8676    1.0000 </r>
       <r>  -12.8151    1.0000 </r>
       <r>  -12.2968    1.0000 </r>
       <r>  -12.1515    1.0000 </r>
       <r>  -12.1510    1.0000 </r>
       <r>  -11.7959    1.0000 </r>
       <r>  -11.7949    1.0000 </r>
       <r>  -11.5095    1.0000 </r>
       <r>  -11.4749    1.0000 </r>
       <r>  -11.4741    1.0000 </r>
       <r>  -11.4393    1.0000 </r>
       <r>  -11.3699    1.0000 </r>
       <r>  -11.3682    1.0000 </r>
       <r>  -11.3157    1.0000 </r>
       <r>  -11.0570    1.0000 </r>
       <r>  -11.0543    1.0000 </r>
       <r>  -11.0202    1.0000 </r>
       <r>  -10.9820    1.0000 </r>
       <r>  -10.9802    1.0000 </r>
       <r>  -10.8836    1.0000 </r>
       <r>  -10.6523    1.0000 </r>
       <r>  -10.6480    1.0000 </r>
       <r>  -10.6456    1.0000 </r>
       <r>  -10.6412    1.0000 </r>
       <r>  -10.6275    1.0000 </r>
       <r>  -10.6272    1.0000 </r>
       <r>  -10.6186    1.0000 </r>
       <r>  -10.5853    1.0000 </r>
       <r>  -10.5718    1.0000 </r>
       <r>  -10.5459    1.0000 </r>
       <r>  -10.5433    1.0000 </r>
       <r>  -10.3703    1.0000 </r>
       <r>  -10.3686    1.0000 </r>
       <r>  -10.3148    1.0000 </r>
       <r>  -10.0881    1.0000 </r>
       <r>  -10.0671    1.0000 </r>
       <r>  -10.0670    1.0000 </r>
       <r>  -10.0611    1.0000 </r>
       <r>  -10.0442    1.0000 </r>
       <r>  -10.0349    1.0000 </r>
       <r>  -10.0333    1.0000 </r>
       <r>  -10.0213    1.0000 </r>
       <r>  -10.0198    1.0000 </r>
       <r>   -9.9092    1.0000 </r>
       <r>   -9.7917    1.0000 </r>
       <r>   -9.7281    1.0000 </r>
       <r>   -9.7078    1.0000 </r>
       <r>   -9.7074    1.0000 </r>
       <r>   -9.5263    1.0000 </r>
       <r>   -9.5254    1.0000 </r>
       <r>   -9.3522    1.0000 </r>
       <r>   -9.3506    1.0000 </r>
       <r>   -9.3471    1.0000 </r>
       <r>   -9.2800    1.0000 </r>
       <r>   -9.2768    1.0000 </r>
       <r>   -9.2707    1.0000 </r>
       <r>   -8.9729    1.0000 </r>
       <r>   -8.9717    1.0000 </r>
       <r>   -8.9587    1.0000 </r>
       <r>   -8.7986    1.0000 </r>
       <r>   -8.7610    1.0000 </r>
       <r>   -8.7580    1.0000 </r>
       <r>   -8.6442    1.0000 </r>
       <r>   -8.5538    1.0000 </r>
       <r>   -8.5502    1.0000 </r>
       <r>   -8.4285    1.0000 </r>
       <r>   -8.4175    1.0000 </r>
       <r>   -8.3180    1.0000 </r>
       <r>   -8.3170    1.0000 </r>
       <r>   -8.3159    1.0000 </r>
       <r>   -8.2906    1.0000 </r>
       <r>   -8.2900    1.0000 </r>
       <r>   -8.2050    1.0000 </r>
       <r>   -8.2043    1.0000 </r>
       <r>   -8.1332    1.0000 </r>
       <r>   -8.1247    1.0000 </r>
       <r>   -8.1245    1.0000 </r>
       <r>   -8.0801    1.0000 </r>
       <r>   -8.0525    1.0000 </r>
       <r>   -8.0506    1.0000 </r>
       <r>   -8.0050    1.0000 </r>
       <r>   -8.0045    1.0000 </r>
       <r>   -7.9033    1.0000 </r>
       <r>   -7.8864    1.0000 </r>
       <r>   -7.7849    1.0000 </r>
       <r>   -7.7558    1.0000 </r>
       <r>   -7.7488    1.0000 </r>
       <r>   -7.5898    1.0000 </r>
       <r>   -7.5871    1.0000 </r>
       <r>   -7.4081    1.0000 </r>
       <r>   -7.4069    1.0000 </r>
       <r>   -7.2983    1.0000 </r>
       <r>   -6.3859    1.0000 </r>
       <r>   -6.3650    1.0000 </r>
       <r>   -6.3337    1.0000 </r>
       <r>   -6.3329    1.0000 </r>
       <r>   -6.3321    1.0000 </r>
       <r>   -6.3180    1.0000 </r>
       <r>   -6.3176    1.0000 </r>
       <r>   -6.2931    1.0000 </r>
       <r>   -6.2900    1.0000 </r>
       <r>   -6.1447    1.0000 </r>
       <r>   -6.1434    1.0000 </r>
       <r>   -6.1300    1.0000 </r>
       <r>   -6.1278    1.0000 </r>
       <r>   -6.0625    1.0000 </r>
       <r>   -6.0536    1.0000 </r>
       <r>   -6.0367    1.0000 </r>
       <r>   -6.0315    1.0000 </r>
       <r>   -6.0279    1.0000 </r>
       <r>   -5.9690    1.0000 </r>
       <r>   -5.9687    1.0000 </r>
       <r>   -5.9489    1.0000 </r>
       <r>   -5.9484    1.0000 </r>
       <r>   -5.7955    1.0000 </r>
       <r>   -5.7786    1.0000 </r>
       <r>   -5.7546    1.0000 </r>
       <r>   -5.6384    1.0000 </r>
       <r>   -5.5388    1.0000 </r>
       <r>   -5.5362    1.0000 </r>
       <r>   -5.4679    1.0000 </r>
       <r>   -5.4653    1.0000 </r>
       <r>   -3.0795    0.0000 </r>
       <r>   -3.0785    0.0000 </r>
       <r>   -3.0770    0.0000 </r>
       <r>   -2.7273    0.0000 </r>
       <r>   -2.7245    0.0000 </r>
       <r>   -2.6869    0.0000 </r>
       <r>   -2.6772    0.0000 </r>
       <r>   -2.2669    0.0000 </r>
       <r>   -1.8725    0.0000 </r>
       <r>   -1.8697    0.0000 </r>
       <r>   -1.7527    0.0000 </r>
       <r>   -1.6545    0.0000 </r>
       <r>   -1.6090    0.0000 </r>
       <r>   -1.1111    0.0000 </r>
       <r>   -1.1106    0.0000 </r>
       <r>   -1.0889    0.0000 </r>
       <r>   -1.0509    0.0000 </r>
       <r>   -1.0491    0.0000 </r>
       <r>   -1.0474    0.0000 </r>
       <r>   -1.0468    0.0000 </r>
       <r>   -1.0034    0.0000 </r>
       <r>   -1.0004    0.0000 </r>
       <r>   -0.9436    0.0000 </r>
       <r>   -0.4219    0.0000 </r>
       <r>   -0.4195    0.0000 </r>
       <r>   -0.2943    0.0000 </r>
       <r>   -0.1925    0.0000 </r>
       <r>   -0.1851    0.0000 </r>
       <r>   -0.1642    0.0000 </r>
       <r>   -0.0584    0.0000 </r>
       <r>   -0.0568    0.0000 </r>
       <r>    0.0046    0.0000 </r>
       <r>    0.1073    0.0000 </r>
       <r>    0.1112    0.0000 </r>
       <r>    0.1375    0.0000 </r>
       <r>    0.1796    0.0000 </r>
       <r>    0.1822    0.0000 </r>
       <r>    0.1868    0.0000 </r>
       <r>    0.4331    0.0000 </r>
       <r>    0.4946    0.0000 </r>
       <r>    0.4963    0.0000 </r>
       <r>    0.5068    0.0000 </r>
       <r>    0.5076    0.0000 </r>
       <r>    0.5643    0.0000 </r>
       <r>    0.5689    0.0000 </r>
       <r>    0.5704    0.0000 </r>
       <r>    0.5871    0.0000 </r>
       <r>    0.6273    0.0000 </r>
       <r>    0.6314    0.0000 </r>
       <r>    0.6968    0.0000 </r>
       <r>    0.7294    0.0000 </r>
       <r>    0.7815    0.0000 </r>
       <r>    0.8073    0.0000 </r>
       <r>    0.8099    0.0000 </r>
       <r>    0.8595    0.0000 </r>
       <r>    0.8801    0.0000 </r>
       <r>    0.8855    0.0000 </r>
       <r>    0.9021    0.0000 </r>
       <r>    0.9031    0.0000 </r>
       <r>    0.9293    0.0000 </r>
       <r>    0.9670    0.0000 </r>
       <r>    0.9747    0.0000 </r>
       <r>    0.9756    0.0000 </r>
       <r>    1.0500    0.0000 </r>
       <r>    1.0524    0.0000 </r>
      </set>
      <set comment="kpoint 2">
       <r>  -25.3688    1.0000 </r>
       <r>  -25.3681    1.0000 </r>
       <r>  -25.3582    1.0000 </r>
       <r>  -25.3552    1.0000 </r>
       <r>  -25.3486    1.0000 </r>
       <r>  -25.3472    1.0000 </r>
       <r>  -22.4817    1.0000 </r>
       <r>  -22.4548    1.0000 </r>
       <r>  -22.4533    1.0000 </r>
       <r>  -22.4105    1.0000 </r>
       <r>  -22.4095    1.0000 </r>
       <r>  -22.4085    1.0000 </r>
       <r>  -22.3694    1.0000 </r>
       <r>  -22.3675    1.0000 </r>
       <r>  -22.3346    1.0000 </r>
       <r>  -22.3334    1.0000 </r>
       <r>  -22.3058    1.0000 </r>
       <r>  -22.3042    1.0000 </r>
       <r>  -21.2355    1.0000 </r>
       <r>  -21.1930    1.0000 </r>
       <r>  -21.1925    1.0000 </r>
       <r>  -21.1328    1.0000 </r>
       <r>  -21.1315    1.0000 </r>
       <r>  -21.0993    1.0000 </r>
       <r>  -21.0908    1.0000 </r>
       <r>  -21.0879    1.0000 </r>
       <r>  -21.0215    1.0000 </r>
       <r>  -19.2439    1.0000 </r>
       <r>  -19.2274    1.0000 </r>
       <r>  -19.0979    1.0000 </r>
       <r>  -19.0967    1.0000 </r>
       <r>  -19.0875    1.0000 </r>
       <r>  -18.9299    1.0000 </r>
       <r>  -18.9283    1.0000 </r>
       <r>  -18.8960    1.0000 </r>
       <r>  -18.8953    1.0000 </r>
       <r>  -18.4002    1.0000 </r>
       <r>  -18.3985    1.0000 </r>
       <r>  -18.3825    1.0000 </r>
       <r>  -18.3716    1.0000 </r>
       <r>  -18.3629    1.0000 </r>
       <r>  -18.3621    1.0000 </r>
       <r>  -18.3538    1.0000 </r>
       <r>  -18.3527    1.0000 </r>
       <r>  -18.3346    1.0000 </r>
       <r>  -17.3438    1.0000 </r>
       <r>  -17.3424    1.0000 </r>
       <r>  -17.2322    1.0000 </r>
       <r>  -17.0922    1.0000 </r>
       <r>  -17.0905    1.0000 </r>
       <r>  -16.8410    1.0000 </r>
       <r>  -16.8398    1.0000 </r>
       <r>  -16.4262    1.0000 </r>
       <r>  -15.8513    1.0000 </r>
       <r>  -15.7762    1.0000 </r>
       <r>  -15.7726    1.0000 </r>
[...]
       <r>   -19.9026     0.0000    54.0000 </r>
       <r>   -19.8057     0.0000    54.0000 </r>
       <r>   -19.7087     0.0000    54.0000 </r>
       <r>   -19.6117     0.0000    54.0000 </r>
       <r>   -19.5147     0.0000    54.0000 </r>
       <r>   -19.4177     0.0000    54.0000 </r>
       <r>   -19.3208     0.0000    54.0000 </r>
       <r>   -19.2238    37.7324    57.6593 </r>
       <r>   -19.1268     0.0004    58.0000 </r>
       <r>   -19.0298    61.8675    64.0000 </r>
       <r>   -18.9328    15.3091    65.4847 </r>
       <r>   -18.8359    43.9801    72.0000 </r>
       <r>   -18.7389     0.0000    72.0000 </r>
       <r>   -18.6419     0.0000    72.0000 </r>
       <r>   -18.5449     0.0000    72.0000 </r>
       <r>   -18.4479     0.0000    72.0000 </r>
       <r>   -18.3510   149.4136    86.4902 </r>
       <r>   -18.2540     0.0000    90.0000 </r>
       <r>   -18.1570     0.0000    90.0000 </r>
       <r>   -18.0600     0.0000    90.0000 </r>
       <r>   -17.9630     0.0000    90.0000 </r>
       <r>   -17.8661     0.0000    90.0000 </r>
       <r>   -17.7691     0.0000    90.0000 </r>
       <r>   -17.6721     0.0000    90.0000 </r>
       <r>   -17.5751     0.0000    90.0000 </r>
       <r>   -17.4781     0.0000    90.0000 </r>
       <r>   -17.3812     0.0000    90.0000 </r>
       <r>   -17.2842    49.2616    94.7774 </r>
       <r>   -17.1872     8.9320    96.0000 </r>
       <r>   -17.0902    21.1077    98.0470 </r>
       <r>   -16.9932    13.3477    99.8615 </r>
       <r>   -16.8962    11.5629   101.2215 </r>
       <r>   -16.7993    26.1560   103.9036 </r>
       <r>   -16.7023     0.0000   104.0000 </r>
       <r>   -16.6053     0.0000   104.0000 </r>
       <r>   -16.5083     0.0000   104.0000 </r>
       <r>   -16.4113     2.9648   104.2875 </r>
       <r>   -16.3144     3.8373   104.8055 </r>
       <r>   -16.2174     7.7528   105.6186 </r>
       <r>   -16.1204     6.0268   106.3512 </r>
       <r>   -16.0234     6.3705   107.1179 </r>
       <r>   -15.9264     2.5169   107.4110 </r>
       <r>   -15.8295    11.6473   108.5631 </r>
       <r>   -15.7325    49.3239   113.9845 </r>
       <r>   -15.6355     0.2917   114.0283 </r>
       <r>   -15.5385     2.9103   114.4157 </r>
       <r>   -15.4415     2.6685   114.6924 </r>
       <r>   -15.3446     2.9676   115.0212 </r>
       <r>   -15.2476     6.3309   115.8476 </r>
       <r>   -15.1506    21.2295   117.9926 </r>
       <r>   -15.0536    39.1923   121.8009 </r>
       <r>   -14.9566    11.3536   123.1011 </r>
       <r>   -14.8597    18.7683   125.0202 </r>
       <r>   -14.7627    66.2308   132.0899 </r>
       <r>   -14.6657    10.2548   133.6946 </r>
       <r>   -14.5687    11.9831   135.0622 </r>
       <r>   -14.4717     9.6730   136.1048 </r>
       <r>   -14.3747    19.0445   138.5806 </r>
       <r>   -14.2778     8.2471   139.4666 </r>
       <r>   -14.1808     7.5009   140.3275 </r>
       <r>   -14.0838    16.8998   142.1392 </r>
       <r>   -13.9868    16.5491   144.0384 </r>
       <r>   -13.8898    39.9834   148.6447 </r>
       <r>   -13.7929     4.0994   150.0000 </r>
       <r>   -13.6959     0.0000   150.0000 </r>
       <r>   -13.5989     0.0000   150.0000 </r>
       <r>   -13.5019     0.0000   150.0000 </r>
       <r>   -13.4049    29.7177   152.8820 </r>
       <r>   -13.3080    16.4441   154.6951 </r>
       <r>   -13.2110    12.4025   156.2030 </r>
       <r>   -13.1140    41.1231   161.7230 </r>
       <r>   -13.0170    18.7156   165.7504 </r>
       <r>   -12.9200    26.0511   168.8603 </r>
       <r>   -12.8231    44.2780   173.6281 </r>
       <r>   -12.7261     0.0000   174.0000 </r>
       <r>   -12.6291     0.0000   174.0000 </r>
       <r>   -12.5321     0.0000   174.0000 </r>
       <r>   -12.4351     0.0000   174.0000 </r>
       <r>   -12.3382     0.0000   174.0000 </r>
       <r>   -12.2412    11.0248   175.0692 </r>
       <r>   -12.1442    43.3241   179.9022 </r>
       <r>   -12.0472     0.0000   180.0000 </r>
       <r>   -11.9502     0.0000   180.0000 </r>
       <r>   -11.8532     0.0000   180.0000 </r>
       <r>   -11.7563    14.4145   181.3979 </r>
       <r>   -11.6593    23.5089   184.1479 </r>
       <r>   -11.5623     5.3848   185.3558 </r>
       <r>   -11.4653    28.3937   188.4546 </r>
       <r>   -11.3683    35.5545   193.1498 </r>
       <r>   -11.2714    22.9806   198.0000 </r>
       <r>   -11.1744     0.0000   198.0000 </r>
       <r>   -11.0774    11.5882   199.1238 </r>
       <r>   -10.9804    50.0889   204.6252 </r>
       <r>   -10.8834    38.3926   209.7907 </r>
       <r>   -10.7865     0.0000   210.0000 </r>
       <r>   -10.6895     2.5717   210.2494 </r>
       <r>   -10.5925   126.6983   223.6226 </r>
       <r>   -10.4955    64.4435   232.2523 </r>
       <r>   -10.3985     7.5897   233.6696 </r>
       <r>   -10.3016    24.6107   236.1869 </r>
       <r>   -10.2046     4.4059   236.7274 </r>
       <r>   -10.1076    13.1935   238.0798 </r>
       <r>   -10.0106   164.1734   254.4573 </r>
       <r>    -9.9136    17.9278   256.7725 </r>
       <r>    -9.8167    30.9290   260.4668 </r>
       <r>    -9.7197    14.0059   262.3259 </r>
       <r>    -9.6227    13.2886   265.4221 </r>
       <r>    -9.5257    28.5059   268.7650 </r>
       <r>    -9.4287     0.0000   270.0000 </r>
       <r>    -9.3318    53.1989   275.1593 </r>
       <r>    -9.2348    34.1620   279.3131 </r>
       <r>    -9.1378    24.3991   282.0000 </r>
       <r>    -9.0408    11.8196   283.1463 </r>
       <r>    -8.9438    39.8296   287.9967 </r>
       <r>    -8.8468     0.0000   288.0000 </r>
       <r>    -8.7499    49.2099   292.7724 </r>
       <r>    -8.6529     0.4420   294.0429 </r>
       <r>    -8.5559    35.7952   298.1056 </r>
       <r>    -8.4589     0.0001   300.0000 </r>
       <r>    -8.3619    41.4813   304.0229 </r>
       <r>    -8.2650    76.4297   312.1139 </r>
       <r>    -8.1680    57.7155   318.3309 </r>
       <r>    -8.0710    61.2343   325.5399 </r>
       <r>    -7.9740    40.4873   332.9310 </r>
       <r>    -7.8770    57.3822   339.1323 </r>
       <r>    -7.7801     6.2578   339.9737 </r>
       <r>    -7.6831    27.2090   342.6390 </r>
       <r>    -7.5861    39.8374   346.6636 </r>
       <r>    -7.4891     0.0000   348.0000 </r>
       <r>    -7.3921    27.6456   350.6811 </r>
       <r>    -7.2952    26.7203   353.8924 </r>
       <r>    -7.1982     0.0000   354.0000 </r>
       <r>    -7.1012     0.0000   354.0000 </r>
       <r>    -7.0042     0.0000   354.0000 </r>
       <r>    -6.9072     0.0000   354.0000 </r>
       <r>    -6.8103     0.0000   354.0000 </r>
       <r>    -6.7133     0.0000   354.0000 </r>
       <r>    -6.6163     0.0000   354.0000 </r>
       <r>    -6.5193     0.0000   354.0000 </r>
       <r>    -6.4223     0.0000   354.0000 </r>
       <r>    -6.3253    94.5803   363.1725 </r>
       <r>    -6.2284    52.9043   372.0000 </r>
       <r>    -6.1314    57.5333   377.5796 </r>
       <r>    -6.0344    64.7187   386.2765 </r>
       <r>    -5.9374    79.4051   397.7008 </r>
       <r>    -5.8404     0.0000   398.0000 </r>
       <r>    -5.7435    47.0797   402.5658 </r>
       <r>    -5.6465    27.3266   405.6509 </r>
       <r>    -5.5495     0.6984   406.0677 </r>
       <r>    -5.4525    58.0546   413.9640 </r>
       <r>    -5.3555     0.0000   414.0000 </r>
       <r>    -5.2586     0.0000   414.0000 </r>
       <r>    -5.1616     0.0000   414.0000 </r>
       <r>    -5.0646     0.0000   414.0000 </r>
       <r>    -4.9676     0.0000   414.0000 </r>
       <r>    -4.8706     0.0000   414.0000 </r>
       <r>    -4.7737     0.0000   414.0000 </r>
       <r>    -4.6767     0.0000   414.0000 </r>
       <r>    -4.5797     0.0000   414.0000 </r>
       <r>    -4.4827     0.0000   414.0000 </r>
       <r>    -4.3857     0.0000   414.0000 </r>
       <r>    -4.2888     0.0000   414.0000 </r>
       <r>    -4.1918     0.0000   414.0000 </r>
       <r>    -4.0948     0.0000   414.0000 </r>
       <r>    -3.9978     0.0000   414.0000 </r>
       <r>    -3.9008     0.0000   414.0000 </r>
       <r>    -3.8039     0.0000   414.0000 </r>
       <r>    -3.7069     0.0000   414.0000 </r>
       <r>    -3.6099     0.0000   414.0000 </r>
       <r>    -3.5129     0.0000   414.0000 </r>
       <r>    -3.4159     0.0000   414.0000 </r>
       <r>    -3.3189     0.0000   414.0000 </r>
       <r>    -3.2220     0.0000   414.0000 </r>
       <r>    -3.1250     0.0000   414.0000 </r>
       <r>    -3.0280    61.8680   420.0000 </r>
       <r>    -2.9310     0.0000   420.0000 </r>
       <r>    -2.8340     0.0000   420.0000 </r>
       <r>    -2.7371    17.9134   421.7373 </r>
       <r>    -2.6401    47.0638   427.7995 </r>
       <r>    -2.5431     0.0000   428.0000 </r>
       <r>    -2.4461     0.0000   428.0000 </r>
       <r>    -2.3491     0.0000   428.0000 </r>
       <r>    -2.2522     4.0205   428.3899 </r>
       <r>    -2.1552     9.8300   429.5203 </r>
       <r>    -2.0582    11.3474   430.8673 </r>
       <r>    -1.9612     3.7501   431.3971 </r>
       <r>    -1.8642    24.0893   433.8362 </r>
       <r>    -1.7673     0.0487   434.0047 </r>
       <r>    -1.6703    22.1233   436.4128 </r>
       <r>    -1.5733    14.8031   438.5363 </r>
       <r>    -1.4763     3.3159   438.9218 </r>
       <r>    -1.3793     8.5283   439.8272 </r>
       <r>    -1.2824     9.1223   440.8185 </r>
       <r>    -1.1854     4.1369   441.4014 </r>
       <r>    -1.0884    16.0462   443.0562 </r>
       <r>    -0.9914   135.3070   458.1920 </r>
       <r>    -0.8944     9.2763   460.0000 </r>
       <r>    -0.7974     0.0000   460.0000 </r>
       <r>    -0.7005     0.0000   460.0000 </r>
       <r>    -0.6035     0.0000   460.0000 </r>
       <r>    -0.5065     0.0000   460.0000 </r>
       <r>    -0.4095    23.8264   462.3107 </r>
       <r>    -0.3125    13.0563   463.8332 </r>
       <r>    -0.2156    42.2027   468.2281 </r>
       <r>    -0.1186    31.6112   471.9999 </r>
       <r>    -0.0216    30.5826   474.9659 </r>
       <r>     0.0754    24.0588   478.0007 </r>
       <r>     0.1724    68.2392   484.6186 </r>
       <r>     0.2693    22.1518   489.7825 </r>
       <r>     0.3663    17.6268   491.7095 </r>
       <r>     0.4633    24.4327   494.5038 </r>
       <r>     0.5603    66.5339   501.2871 </r>
       <r>     0.6573    70.4650   509.2682 </r>
       <r>     0.7542    49.9025   515.5409 </r>
       <r>     0.8512    73.9525   524.2734 </r>
       <r>     0.9482    73.1439   532.7945 </r>
       <r>     1.0452    70.9600   541.1168 </r>
       <r>     1.1422    12.3591   544.0000 </r>
       <r>     1.2391     0.0000   544.0000 </r>
       <r>     1.3361     0.0000   544.0000 </r>
       <r>     1.4331     0.0000   544.0000 </r>
       <r>     1.5301     0.0000   544.0000 </r>
       <r>     1.6271     0.0000   544.0000 </r>
       <r>     1.7240     0.0000   544.0000 </r>
       <r>     1.8210     0.0000   544.0000 </r>
       <r>     1.9180     0.0000   544.0000 </r>
       <r>     2.0150     0.0000   544.0000 </r>
       <r>     2.1120     0.0000   544.0000 </r>
       <r>     2.2090     0.0000   544.0000 </r>
       <r>     2.3059     0.0000   544.0000 </r>
       <r>     2.4029     0.0000   544.0000 </r>
      </set>
     </set>
    </array>
   </total>
  </dos>
 </calculation>
 <structure name="finalpos" >
  <crystal>
   <varray name="basis" >
    <v>      29.05532218      -0.02567623       0.00000000 </v>
    <v>     -14.54864582      25.19566018       0.00000000 </v>
    <v>       0.00000000       0.00000000      20.00000000 </v>
   </varray>
   <i name="volume">  14633.88939337 </i>
   <varray name="rec_basis" >
    <v>       0.03443467       0.01988350       0.00000000 </v>
    <v>       0.00003509       0.03970964       0.00000000 </v>
    <v>       0.00000000       0.00000000       0.05000000 </v>
   </varray>
  </crystal>
  <varray name="positions" >
   <v>       0.37856702       0.53022915       0.50374462 </v>
   <v>       0.46083208       0.61190020       0.50942403 </v>
   <v>       0.39117200       0.60449449       0.44012012 </v>
   <v>       0.46637952       0.86943288       0.51467291 </v>
   <v>       0.38423878       0.86928353       0.51729498 </v>
   <v>       0.39260625       0.80588399       0.45184219 </v>
   <v>       0.12745057       0.61414263       0.51082626 </v>
   <v>       0.12666400       0.53196351       0.50409478 </v>
   <v>       0.18992905       0.60653704       0.44222665 </v>
   <v>       0.59633183       0.47479532       0.51636448 </v>
   <v>       0.51435844       0.39279600       0.51172209 </v>
   <v>       0.58822691       0.40472941       0.44758857 </v>
   <v>       0.51949290       0.14221293       0.50171760 </v>
   <v>       0.60177799       0.14289364       0.49772026 </v>
   <v>       0.58958974       0.20420264       0.43267180 </v>
   <v>       0.85386020       0.39576887       0.50053256 </v>
   <v>       0.85264792       0.47687721       0.50886659 </v>
   <v>       0.79077672       0.40746254       0.43886404 </v>
   <v>       0.43117906       0.55869524       0.51715909 </v>
   <v>       0.43061933       0.47374486       0.53784108 </v>
   <v>       0.51429731       0.55705605       0.54380699 </v>
   <v>       0.45863395       0.52962194       0.53655855 </v>
   <v>       0.36028349       0.55546572       0.46538419 </v>
   <v>       0.43862066       0.63307052       0.47048688 </v>
   <v>       0.46082734       0.69118917       0.46357695 </v>
   <v>       0.30278877       0.53490862       0.45401108 </v>
   <v>       0.44732079       0.75760565       0.40872779 </v>
   <v>       0.44655164       0.70974493       0.40668378 </v>
   <v>       0.28780460       0.55379794       0.39806231 </v>
   <v>       0.24044671       0.55422259       0.39841165 </v>
   <v>       0.48369040       0.72535146       0.51836792 </v>
   <v>       0.48455284       0.77392123       0.52039425 </v>
   <v>       0.21761861       0.50923450       0.50550330 </v>
   <v>       0.26560928       0.50883025       0.50518058 </v>
   <v>       0.44154060       0.82494826       0.47800871 </v>
   <v>       0.43759564       0.89365069       0.52503241 </v>
   <v>       0.36356848       0.82509843       0.47994804 </v>
   <v>       0.17147702       0.63527352       0.47297260 </v>
   <v>       0.10291370       0.56077064       0.51725289 </v>
   <v>       0.17068081       0.55708887       0.46652112 </v>
   <v>       0.61714910       0.45226274       0.47748624 </v>
   <v>       0.54299679       0.44551834       0.52403798 </v>
   <v>       0.53926564       0.37417697       0.47334743 </v>
   <v>       0.54195944       0.18544071       0.46252887 </v>
   <v>       0.54908926       0.11874739       0.51057898 </v>
   <v>       0.62027806       0.18617037       0.45886131 </v>
   <v>       0.80999533       0.37712889       0.46273972 </v>
   <v>       0.87729403       0.44810789       0.51486331 </v>
   <v>       0.80897985       0.45434071       0.47034106 </v>
   <v>       0.45800935       0.44600926       0.53986490 </v>
   <v>       0.52246923       0.97969147       0.53861042 </v>
   <v>       0.54973031       0.03476247       0.53460843 </v>
   <v>       0.01755259       0.47593143       0.53454109 </v>
   <v>       0.96233999       0.44834862       0.53388047 </v>
   <v>       0.46248081       0.78825345       0.46760705 </v>
   <v>       0.24077497       0.71177523       0.40965383 </v>
   <v>       0.28867163       0.75896808       0.41147471 </v>
   <v>       0.30556683       0.78906929       0.47072489 </v>
   <v>       0.20853314       0.69330264       0.46710486 </v>
   <v>       0.20684542       0.53574458       0.45467330 </v>
   <v>       0.53534592       0.25524282       0.39936280 </v>
   <v>       0.53467690       0.30236816       0.40221910 </v>
   <v>       0.51838764       0.31680277       0.46102634 </v>
   <v>       0.51987679       0.22139919       0.45536316 </v>
   <v>       0.74090131       0.30481013       0.39343839 </v>
   <v>       0.69349473       0.25706172       0.39242469 </v>
   <v>       0.67787720       0.22303653       0.44825881 </v>
   <v>       0.77391948       0.31969011       0.45024101 </v>
   <v>       0.69225425       0.46174700       0.40897843 </v>
   <v>       0.74005640       0.46228308       0.40706227 </v>
   <v>       0.77202936       0.47541270       0.46468330 </v>
   <v>       0.67516575       0.47435747       0.46852736 </v>
   <v>       0.54169747       0.52934291       0.54579718 </v>
   <v>       0.51397864       0.47359893       0.54058469 </v>
   <v>       0.46590773       0.03420918       0.53794151 </v>
   <v>       0.43864093       0.97915533       0.54191297 </v>
   <v>       0.46650049       0.95116639       0.53917849 </v>
   <v>       0.52161295       0.06245606       0.53116350 </v>
   <v>       0.96236000       0.53175121       0.53903583 </v>
   <v>       0.01760237       0.55935247       0.53965400 </v>
   <v>       0.04579840       0.53182790       0.53424107 </v>
   <v>       0.93418427       0.47607564       0.53295479 </v>
   <v>       0.26994772       0.77496452       0.52440933 </v>
   <v>       0.22142884       0.72702472       0.52264225 </v>
   <v>       0.49508599       0.27941071       0.51257854 </v>
   <v>       0.49588107       0.23171321       0.50975306 </v>
   <v>       0.71450304       0.23390503       0.50006425 </v>
   <v>       0.76255285       0.28222906       0.50103685 </v>
   <v>       0.75900764       0.49574175       0.52060444 </v>
   <v>       0.71054632       0.49523066       0.52253678 </v>
   <v>       0.38744307       0.45279160       0.53342548 </v>
   <v>       0.53560305       0.60031524       0.54398595 </v>
   <v>       0.43027009       0.68389614       0.36329130 </v>
   <v>       0.31601884       0.57257860       0.35731116 </v>
   <v>       0.49602600       0.71160530       0.56190899 </v>
   <v>       0.27654501       0.49285632       0.54776329 </v>
   <v>       0.43679572       0.40280267       0.53700729 </v>
   <v>       0.54382561       0.95779635       0.53758051 </v>
   <v>       0.59292541       0.05699997       0.53047075 </v>
   <v>       0.03967785       0.45486972       0.53149690 </v>
   <v>       0.94020475       0.40518127       0.53029754 </v>
   <v>       0.43166122       0.76960049       0.36693559 </v>
   <v>       0.31573712       0.77075516       0.36903882 </v>
   <v>       0.22996770       0.68625641       0.36578850 </v>
   <v>       0.23119229       0.57333489       0.35794749 </v>
   <v>       0.55130220       0.33081644       0.36133833 </v>
   <v>       0.55246223       0.24639606       0.35622406 </v>
   <v>       0.66571403       0.24775979       0.35118692 </v>
   <v>       0.75062188       0.33330180       0.35300544 </v>
   <v>       0.75096139       0.44791770       0.36295020 </v>
   <v>       0.66533922       0.44696961       0.36635878 </v>
   <v>       0.58499479       0.55039352       0.54750021 </v>
   <v>       0.39534170       0.95682113       0.54334984 </v>
   <v>       0.44449019       0.05603181       0.53633087 </v>
   <v>       0.03974633       0.60261565       0.54052132 </v>
   <v>       0.94022849       0.55287791       0.53942260 </v>
   <v>       0.49762994       0.79822682       0.56553643 </v>
   <v>       0.28238217       0.79892932       0.56985190 </v>
   <v>       0.19593995       0.71345316       0.56677251 </v>
   <v>       0.19087001       0.49357089       0.54831407 </v>
   <v>       0.48115469       0.28992837       0.55754065 </v>
   <v>       0.48260126       0.20480662       0.55249361 </v>
   <v>       0.70302845       0.20686872       0.54257266 </v>
   <v>       0.78882870       0.29313556       0.54431228 </v>
   <v>       0.78438396       0.50713425       0.56480563 </v>
   <v>       0.69798652       0.50627177       0.56826785 </v>
  </varray>
 </structure>
</modeling>
