<?xml version="1.0" encoding="ISO-8859-1"?>
<modeling>
 <generator>
  <i name="program" type="string">vasp </i>
  <i name="version" type="string">5.4.4.18Apr17-6-g9f103f2a35  </i>
  <i name="subversion" type="string">(build Jun 07 2020 16:50:00) complex            parallel </i>
  <i name="platform" type="string">LinuxIFC </i>
  <i name="date" type="string">2023 03 06 </i>
  <i name="time" type="string">23:22:57 </i>
 </generator>
 <incar>
  <i type="string" name="SYSTEM">Simulation for cell shape cell volume r</i>
  <i type="int" name="ISTART">     1</i>
  <i type="string" name="PREC">high</i>
  <i type="string" name="ALGO">48</i>
  <i type="int" name="ICHARG">    11</i>
  <i type="int" name="NELM">   200</i>
  <i type="int" name="IBRION">    -1</i>
  <i name="EDIFF">      0.00001000</i>
  <i name="EDIFFG">     -0.01000000</i>
  <i type="int" name="NSW">     0</i>
  <i type="int" name="ISIF">     2</i>
  <i name="ENCUT">    500.00000000</i>
  <i name="POTIM">      0.30000000</i>
  <i type="string" name="LREAL">A</i>
  <i type="int" name="ISMEAR">     0</i>
  <i name="SIGMA">      0.01000000</i>
  <i type="int" name="NWRITE">     0</i>
  <i type="logical" name="LWAVE"> F  </i>
  <i type="logical" name="LCHARG"> F  </i>
  <v type="int" name="KPOINT_BSE">    -1     0     0     0</v>
  <i type="int" name="NELM">   200</i>
  <i type="string" name="GGA">PE</i>
 </incar>
 <structure name="primitive_cell" >
  <crystal>
   <varray name="basis" >
    <v>      29.71288216       0.01239640       0.00000000 </v>
    <v>     -14.84571634      25.73271224       0.00000000 </v>
    <v>       0.00000000       0.00000000      20.00000000 </v>
   </varray>
   <i name="volume">  15295.54160085 </i>
   <varray name="rec_basis" >
    <v>       0.03364734       0.01941182       0.00000000 </v>
    <v>      -0.00001621       0.03885169       0.00000000 </v>
    <v>       0.00000000       0.00000000       0.05000000 </v>
   </varray>
  </crystal>
  <varray name="positions" >
   <v>      -0.40005333       0.02403768       0.44817994 </v>
   <v>      -0.36107313       0.04276997       0.44133271 </v>
   <v>      -0.41540685      -0.01295994       0.46506589 </v>
   <v>      -0.42064236       0.05319812       0.47421986 </v>
   <v>      -0.39322595       0.10756138       0.46727543 </v>
   <v>      -0.46991011       0.02918979      -0.49359723 </v>
   <v>      -0.35540610       0.12618250       0.44233679 </v>
   <v>      -0.49956023      -0.04171452       0.40832529 </v>
   <v>       0.49884544      -0.02805744      -0.48636286 </v>
   <v>       0.48649696      -0.06024490       0.45691641 </v>
   <v>      -0.41277994       0.13849123       0.49200860 </v>
   <v>      -0.48903159       0.06105609      -0.46953754 </v>
   <v>       0.48004623      -0.05175938      -0.42292678 </v>
   <v>       0.45682567      -0.11395381       0.46089123 </v>
   <v>      -0.46149992       0.11469752      -0.47596012 </v>
   <v>      -0.47928820       0.01478675      -0.36723291 </v>
   <v>       0.47283447       0.04226905      -0.44567220 </v>
   <v>       0.49072736      -0.02230705      -0.36511728 </v>
   <v>       0.44744496      -0.13837584       0.41660907 </v>
   <v>      -0.38168632       0.19489310       0.48464174 </v>
   <v>      -0.34568119       0.20952880       0.45472656 </v>
   <v>       0.44868646      -0.10613583      -0.41963761 </v>
   <v>       0.43739565      -0.13731252      -0.47657472 </v>
   <v>      -0.47675898       0.13887778      -0.45728610 </v>
   <v>       0.48803856      -0.04069680      -0.32139505 </v>
   <v>       0.43330972      -0.12447281      -0.37116161 </v>
   <v>      -0.39519051       0.22577002      -0.48873353 </v>
   <v>       0.40488434      -0.19383276      -0.47035146 </v>
   <v>      -0.28848288       0.28176575      -0.48776897 </v>
   <v>       0.40340387      -0.22493449       0.48411586 </v>
   <v>       0.38165907      -0.20856049      -0.42396923 </v>
   <v>      -0.36273453       0.27974393      -0.49249701 </v>
   <v>      -0.30822647       0.30425213      -0.49177629 </v>
   <v>       0.36845863      -0.27839176       0.48900294 </v>
   <v>       0.42963804      -0.29780405       0.48597571 </v>
   <v>      -0.38681190       0.31015272      -0.49182309 </v>
   <v>      -0.42901440       0.29041901      -0.48780788 </v>
   <v>      -0.27785071       0.35870986      -0.49213165 </v>
   <v>       0.38788484      -0.31293646       0.48895939 </v>
   <v>       0.29958552      -0.27093692       0.48552392 </v>
   <v>       0.31475017      -0.29754529       0.48871944 </v>
   <v>      -0.22387403       0.38022698      -0.48810838 </v>
   <v>      -0.35685429       0.36466202      -0.49220148 </v>
   <v>      -0.30240136       0.38870990      -0.49146541 </v>
   <v>      -0.13667202       0.38590051      -0.45666952 </v>
   <v>       0.35335148      -0.36664705       0.48932346 </v>
   <v>      -0.44385157       0.34777034       0.45470124 </v>
   <v>      -0.19309387       0.42454374       0.48510039 </v>
   <v>       0.28023976      -0.35147936       0.48912550 </v>
   <v>       0.40988166      -0.38007716      -0.42349079 </v>
   <v>      -0.11267093       0.42528163      -0.47552466 </v>
   <v>      -0.27996352       0.43090140      -0.48719919 </v>
   <v>      -0.37844652       0.39708504      -0.48821411 </v>
   <v>      -0.20786593       0.44572908       0.45501048 </v>
   <v>       0.29942583      -0.38603507       0.48910130 </v>
   <v>       0.37178942      -0.40168213       0.48457590 </v>
   <v>      -0.42269843       0.38366006       0.48488615 </v>
   <v>      -0.13667938       0.45000546       0.49239138 </v>
   <v>       0.40137577      -0.40326157      -0.46992199 </v>
   <v>       0.22679413      -0.36997398       0.48427433 </v>
   <v>      -0.04007503       0.43231770      -0.44536934 </v>
   <v>      -0.05902296       0.45150665      -0.46930229 </v>
   <v>       0.48229776       0.35702554       0.44266148 </v>
   <v>       0.27284621      -0.42779756       0.48620755 </v>
   <v>       0.42534499      -0.43584695      -0.47624841 </v>
   <v>       0.41418524      -0.44580714       0.41693116 </v>
   <v>      -0.10594752      -0.49956870       0.46746663 </v>
   <v>      -0.44816166       0.41464753       0.49221106 </v>
   <v>       0.19568708      -0.39953623      -0.47018014 </v>
   <v>       0.44233068      -0.43184467      -0.37087439 </v>
   <v>       0.42921571      -0.45527302       0.46117051 </v>
   <v>       0.21041873      -0.40793420      -0.42370524 </v>
   <v>       0.44526071      -0.44720378      -0.41938326 </v>
   <v>      -0.49865335       0.39489030       0.46751611 </v>
   <v>      -0.12473743      -0.48052471       0.44248015 </v>
   <v>      -0.02735219      -0.49757056      -0.49356051 </v>
   <v>      -0.05157589      -0.47247662       0.47428880 </v>
   <v>       0.14024111      -0.41268207       0.41667096 </v>
   <v>      -0.38397527       0.47886922      -0.45721292 </v>
   <v>       0.45320489      -0.48502251       0.45706701 </v>
   <v>      -0.42341721       0.46342585      -0.47588482 </v>
   <v>       0.13916022      -0.42360700      -0.47647004 </v>
   <v>       0.46827594      -0.47859227      -0.42281161 </v>
   <v>      -0.01305458      -0.49247577      -0.36737081 </v>
   <v>       0.40430028       0.36221049       0.44191010 </v>
   <v>       0.11581006      -0.42762893       0.46095467 </v>
   <v>       0.45771752      -0.49897681       0.40843612 </v>
   <v>       0.47312030      -0.49738547      -0.48629677 </v>
   <v>       0.47416922       0.42211102       0.47444995 </v>
   <v>       0.02989730      -0.47147649      -0.48638509 </v>
   <v>       0.02406022      -0.48532280      -0.36517346 </v>
   <v>       0.48710671      -0.48935015      -0.36509537 </v>
   <v>       0.12627648      -0.44041829      -0.37104534 </v>
   <v>       0.47149778      -0.48664873      -0.32129952 </v>
   <v>      -0.43052437      -0.47100870      -0.44582759 </v>
   <v>       0.04359971      -0.45625944       0.40830696 </v>
   <v>       0.10795614      -0.44346022      -0.41955632 </v>
   <v>       0.42435881       0.40120957       0.44863041 </v>
   <v>      -0.02263207      -0.42275376       0.44819949 </v>
   <v>       0.05357786      -0.46653892      -0.42292602 </v>
   <v>       0.06210295      -0.45165668       0.45692174 </v>
   <v>      -0.44971663       0.49081151      -0.46959374 </v>
   <v>      -0.04152384      -0.40262866       0.44140916 </v>
   <v>       0.04238742      -0.46966066      -0.32141147 </v>
   <v>       0.49926644       0.47146813      -0.49357031 </v>
   <v>       0.49423481       0.48065350      -0.36733779 </v>
   <v>       0.01437672      -0.40101088       0.46494778 </v>
   <v>       0.40260442       0.41649338       0.46538688 </v>
  </varray>
 </structure>
 <varray name="primitive_index" >
  <v type="int" >        1 </v>
  <v type="int" >       53 </v>
  <v type="int" >       52 </v>
  <v type="int" >      107 </v>
  <v type="int" >      106 </v>
  <v type="int" >       87 </v>
  <v type="int" >       51 </v>
  <v type="int" >       49 </v>
  <v type="int" >       86 </v>
  <v type="int" >      103 </v>
  <v type="int" >      105 </v>
  <v type="int" >       88 </v>
  <v type="int" >       85 </v>
  <v type="int" >      104 </v>
  <v type="int" >       89 </v>
  <v type="int" >       13 </v>
  <v type="int" >       32 </v>
  <v type="int" >       10 </v>
  <v type="int" >       50 </v>
  <v type="int" >      108 </v>
  <v type="int" >       54 </v>
  <v type="int" >       84 </v>
  <v type="int" >       83 </v>
  <v type="int" >       33 </v>
  <v type="int" >       35 </v>
  <v type="int" >       34 </v>
  <v type="int" >        3 </v>
  <v type="int" >       90 </v>
  <v type="int" >       14 </v>
  <v type="int" >        6 </v>
  <v type="int" >       36 </v>
  <v type="int" >       57 </v>
  <v type="int" >       58 </v>
  <v type="int" >       63 </v>
  <v type="int" >       19 </v>
  <v type="int" >       56 </v>
  <v type="int" >       16 </v>
  <v type="int" >       59 </v>
  <v type="int" >       62 </v>
  <v type="int" >       17 </v>
  <v type="int" >       64 </v>
  <v type="int" >        4 </v>
  <v type="int" >       55 </v>
  <v type="int" >       60 </v>
  <v type="int" >       27 </v>
  <v type="int" >       61 </v>
  <v type="int" >       42 </v>
  <v type="int" >      102 </v>
  <v type="int" >       65 </v>
  <v type="int" >       25 </v>
  <v type="int" >       81 </v>
  <v type="int" >       15 </v>
  <v type="int" >        2 </v>
  <v type="int" >       48 </v>
  <v type="int" >       66 </v>
  <v type="int" >        5 </v>
  <v type="int" >       96 </v>
  <v type="int" >       99 </v>
  <v type="int" >       74 </v>
  <v type="int" >        7 </v>
  <v type="int" >       26 </v>
  <v type="int" >       80 </v>
  <v type="int" >       39 </v>
  <v type="int" >       18 </v>
  <v type="int" >       67 </v>
  <v type="int" >       38 </v>
  <v type="int" >      100 </v>
  <v type="int" >       93 </v>
  <v type="int" >       82 </v>
  <v type="int" >       22 </v>
  <v type="int" >       92 </v>
  <v type="int" >       31 </v>
  <v type="int" >       68 </v>
  <v type="int" >       94 </v>
  <v type="int" >       45 </v>
  <v type="int" >       79 </v>
  <v type="int" >      101 </v>
  <v type="int" >       44 </v>
  <v type="int" >       21 </v>
  <v type="int" >       91 </v>
  <v type="int" >       73 </v>
  <v type="int" >       75 </v>
  <v type="int" >       69 </v>
  <v type="int" >       30 </v>
  <v type="int" >       41 </v>
  <v type="int" >       98 </v>
  <v type="int" >       37 </v>
  <v type="int" >       70 </v>
  <v type="int" >       95 </v>
  <v type="int" >       78 </v>
  <v type="int" >        9 </v>
  <v type="int" >        8 </v>
  <v type="int" >       28 </v>
  <v type="int" >       23 </v>
  <v type="int" >       20 </v>
  <v type="int" >       43 </v>
  <v type="int" >       76 </v>
  <v type="int" >       11 </v>
  <v type="int" >       12 </v>
  <v type="int" >       77 </v>
  <v type="int" >       97 </v>
  <v type="int" >       72 </v>
  <v type="int" >       47 </v>
  <v type="int" >       29 </v>
  <v type="int" >       71 </v>
  <v type="int" >       24 </v>
  <v type="int" >       46 </v>
  <v type="int" >       40 </v>
 </varray>
 <kpoints>
  <generation param="listgenerated">
   <i name="divisions" type="int">      20 </i>
   <v>       0.00000000       0.00000000       0.00000000 </v>
   <v>       0.50000000       0.00000000       0.00000000 </v>
   <v>       0.33333333       0.33333333       0.00000000 </v>
   <v>       0.00000000       0.00000000       0.00000000 </v>
  </generation>
  <varray name="kpointlist" >
   <v>       0.00000000       0.00000000       0.00000000 </v>
   <v>       0.02631579       0.00000000       0.00000000 </v>
   <v>       0.05263158       0.00000000       0.00000000 </v>
   <v>       0.07894737       0.00000000       0.00000000 </v>
   <v>       0.10526316       0.00000000       0.00000000 </v>
   <v>       0.13157895       0.00000000       0.00000000 </v>
   <v>       0.15789474       0.00000000       0.00000000 </v>
   <v>       0.18421053       0.00000000       0.00000000 </v>
   <v>       0.21052632       0.00000000       0.00000000 </v>
   <v>       0.23684211       0.00000000       0.00000000 </v>
   <v>       0.26315789       0.00000000       0.00000000 </v>
   <v>       0.28947368       0.00000000       0.00000000 </v>
   <v>       0.31578947       0.00000000       0.00000000 </v>
   <v>       0.34210526       0.00000000       0.00000000 </v>
   <v>       0.36842105       0.00000000       0.00000000 </v>
   <v>       0.39473684       0.00000000       0.00000000 </v>
   <v>       0.42105263       0.00000000       0.00000000 </v>
   <v>       0.44736842       0.00000000       0.00000000 </v>
   <v>       0.47368421       0.00000000       0.00000000 </v>
   <v>       0.50000000       0.00000000       0.00000000 </v>
   <v>       0.50000000       0.00000000       0.00000000 </v>
   <v>       0.49122807       0.01754386       0.00000000 </v>
   <v>       0.48245614       0.03508772       0.00000000 </v>
   <v>       0.47368421       0.05263158       0.00000000 </v>
   <v>       0.46491228       0.07017544       0.00000000 </v>
   <v>       0.45614035       0.08771930       0.00000000 </v>
   <v>       0.44736842       0.10526316       0.00000000 </v>
   <v>       0.43859649       0.12280702       0.00000000 </v>
   <v>       0.42982456       0.14035088       0.00000000 </v>
   <v>       0.42105263       0.15789474       0.00000000 </v>
   <v>       0.41228070       0.17543860       0.00000000 </v>
   <v>       0.40350877       0.19298246       0.00000000 </v>
   <v>       0.39473684       0.21052632       0.00000000 </v>
   <v>       0.38596491       0.22807018       0.00000000 </v>
   <v>       0.37719298       0.24561404       0.00000000 </v>
   <v>       0.36842105       0.26315789       0.00000000 </v>
   <v>       0.35964912       0.28070175       0.00000000 </v>
   <v>       0.35087719       0.29824561       0.00000000 </v>
   <v>       0.34210526       0.31578947       0.00000000 </v>
   <v>       0.33333333       0.33333333       0.00000000 </v>
   <v>       0.33333333       0.33333333       0.00000000 </v>
   <v>       0.31578947       0.31578947       0.00000000 </v>
   <v>       0.29824561       0.29824561       0.00000000 </v>
   <v>       0.28070175       0.28070175       0.00000000 </v>
   <v>       0.26315789       0.26315789       0.00000000 </v>
   <v>       0.24561404       0.24561404       0.00000000 </v>
   <v>       0.22807018       0.22807018       0.00000000 </v>
   <v>       0.21052632       0.21052632       0.00000000 </v>
   <v>       0.19298246       0.19298246       0.00000000 </v>
   <v>       0.17543860       0.17543860       0.00000000 </v>
   <v>       0.15789474       0.15789474       0.00000000 </v>
   <v>       0.14035088       0.14035088       0.00000000 </v>
   <v>       0.12280702       0.12280702       0.00000000 </v>
   <v>       0.10526316       0.10526316       0.00000000 </v>
   <v>       0.08771930       0.08771930       0.00000000 </v>
   <v>       0.07017544       0.07017544       0.00000000 </v>
   <v>       0.05263158       0.05263158       0.00000000 </v>
   <v>       0.03508772       0.03508772       0.00000000 </v>
   <v>       0.01754386       0.01754386       0.00000000 </v>
   <v>       0.00000000       0.00000000       0.00000000 </v>
  </varray>
  <varray name="weights" >
   <v>       0.01666667 </v>
   <v>       0.01666667 </v>
   <v>       0.01666667 </v>
   <v>       0.01666667 </v>
   <v>       0.01666667 </v>
   <v>       0.01666667 </v>
   <v>       0.01666667 </v>
   <v>       0.01666667 </v>
   <v>       0.01666667 </v>
   <v>       0.01666667 </v>
   <v>       0.01666667 </v>
   <v>       0.01666667 </v>
   <v>       0.01666667 </v>
   <v>       0.01666667 </v>
   <v>       0.01666667 </v>
   <v>       0.01666667 </v>
   <v>       0.01666667 </v>
   <v>       0.01666667 </v>
   <v>       0.01666667 </v>
   <v>       0.01666667 </v>
   <v>       0.01666667 </v>
   <v>       0.01666667 </v>
   <v>       0.01666667 </v>
   <v>       0.01666667 </v>
   <v>       0.01666667 </v>
   <v>       0.01666667 </v>
   <v>       0.01666667 </v>
   <v>       0.01666667 </v>
   <v>       0.01666667 </v>
   <v>       0.01666667 </v>
   <v>       0.01666667 </v>
   <v>       0.01666667 </v>
   <v>       0.01666667 </v>
   <v>       0.01666667 </v>
   <v>       0.01666667 </v>
   <v>       0.01666667 </v>
   <v>       0.01666667 </v>
   <v>       0.01666667 </v>
   <v>       0.01666667 </v>
   <v>       0.01666667 </v>
   <v>       0.01666667 </v>
   <v>       0.01666667 </v>
   <v>       0.01666667 </v>
   <v>       0.01666667 </v>
   <v>       0.01666667 </v>
   <v>       0.01666667 </v>
   <v>       0.01666667 </v>
   <v>       0.01666667 </v>
   <v>       0.01666667 </v>
   <v>       0.01666667 </v>
   <v>       0.01666667 </v>
   <v>       0.01666667 </v>
   <v>       0.01666667 </v>
   <v>       0.01666667 </v>
   <v>       0.01666667 </v>
   <v>       0.01666667 </v>
   <v>       0.01666667 </v>
   <v>       0.01666667 </v>
   <v>       0.01666667 </v>
   <v>       0.01666667 </v>
  </varray>
 </kpoints>
 <parameters>
  <separator name="general" >
   <i type="string" name="SYSTEM">Simulation for cell shape cell volume r</i>
   <i type="logical" name="LCOMPAT"> F  </i>
  </separator>
  <separator name="electronic" >
   <i type="string" name="PREC">high</i>
   <i name="ENMAX">    500.00000000</i>
   <i name="ENAUG">    644.87300000</i>
   <i name="EDIFF">      0.00001000</i>
   <i type="int" name="IALGO">    38</i>
   <i type="int" name="IWAVPR">    10</i>
   <i type="int" name="NBANDS">   224</i>
   <i name="NELECT">    318.00000000</i>
   <i type="int" name="TURBO">     0</i>
   <i type="int" name="IRESTART">     0</i>
   <i type="int" name="NREBOOT">     0</i>
   <i type="int" name="NMIN">     0</i>
   <i name="EREF">      0.00000000</i>
   <separator name="electronic smearing" >
    <i type="int" name="ISMEAR">     0</i>
    <i name="SIGMA">      0.01000000</i>
    <i name="KSPACING">      0.50000000</i>
    <i type="logical" name="KGAMMA"> T  </i>
   </separator>
   <separator name="electronic projectors" >
    <i type="logical" name="LREAL"> T  </i>
    <v name="ROPT">     -0.00040000     -0.00040000     -0.00040000</v>
    <i type="int" name="LMAXPAW">  -100</i>
    <i type="int" name="LMAXMIX">     2</i>
    <i type="logical" name="NLSPLINE"> F  </i>
   </separator>
   <separator name="electronic startup" >
    <i type="int" name="ISTART">     1</i>
    <i type="int" name="ICHARG">    11</i>
    <i type="int" name="INIWAV">     1</i>
   </separator>
   <separator name="electronic spin" >
    <i type="int" name="ISPIN">     1</i>
    <i type="logical" name="LNONCOLLINEAR"> F  </i>
    <v name="MAGMOM">      1.00000000      1.00000000      1.00000000      1.00000000      1.00000000      1.00000000      1.00000000      1.00000000      1.00000000      1.00000000      1.00000000      1.00000000      1.00000000      1.00000000      1.00000000      1.00000000      1.00000000      1.00000000      1.00000000      1.00000000
      1.00000000      1.00000000      1.00000000      1.00000000      1.00000000      1.00000000      1.00000000      1.00000000      1.00000000      1.00000000      1.00000000      1.00000000      1.00000000      1.00000000      1.00000000      1.00000000      1.00000000      1.00000000      1.00000000      1.00000000
      1.00000000      1.00000000      1.00000000      1.00000000      1.00000000      1.00000000      1.00000000      1.00000000      1.00000000      1.00000000      1.00000000      1.00000000      1.00000000      1.00000000      1.00000000      1.00000000      1.00000000      1.00000000      1.00000000      1.00000000
      1.00000000      1.00000000      1.00000000      1.00000000      1.00000000      1.00000000      1.00000000      1.00000000      1.00000000      1.00000000      1.00000000      1.00000000      1.00000000      1.00000000      1.00000000      1.00000000      1.00000000      1.00000000      1.00000000      1.00000000
      1.00000000      1.00000000      1.00000000      1.00000000      1.00000000      1.00000000      1.00000000      1.00000000      1.00000000      1.00000000      1.00000000      1.00000000      1.00000000      1.00000000      1.00000000      1.00000000      1.00000000      1.00000000      1.00000000      1.00000000
      1.00000000      1.00000000      1.00000000      1.00000000      1.00000000      1.00000000      1.00000000      1.00000000</v>
    <i name="NUPDOWN">     -1.00000000</i>
    <i type="logical" name="LSORBIT"> F  </i>
    <v name="SAXIS">      0.00000000      0.00000000      1.00000000</v>
    <i type="logical" name="LSPIRAL"> F  </i>
    <v name="QSPIRAL">      0.00000000      0.00000000      0.00000000</v>
    <i type="logical" name="LZEROZ"> F  </i>
   </separator>
   <separator name="electronic exchange-correlation" >
    <i type="logical" name="LASPH"> F  </i>
    <i type="logical" name="LMETAGGA"> F  </i>
   </separator>
   <separator name="electronic convergence" >
    <i type="int" name="NELM">   200</i>
    <i type="int" name="NELMDL">     0</i>
    <i type="int" name="NELMIN">     2</i>
    <i name="ENINI">    500.00000000</i>
    <separator name="electronic convergence detail" >
     <i type="logical" name="LDIAG"> T  </i>
     <i type="logical" name="LSUBROT"> F  </i>
     <i name="WEIMIN">      0.00000000</i>
     <i name="EBREAK">      0.00000001</i>
     <i name="DEPER">      0.30000000</i>
     <i type="int" name="NRMM">     4</i>
     <i name="TIME">      0.40000000</i>
    </separator>
   </separator>
   <separator name="electronic mixer" >
    <i name="AMIX">      0.40000000</i>
    <i name="BMIX">      1.00000000</i>
    <i name="AMIN">      0.10000000</i>
    <i name="AMIX_MAG">      1.60000000</i>
    <i name="BMIX_MAG">      1.00000000</i>
    <separator name="electronic mixer details" >
     <i type="int" name="IMIX">     4</i>
     <i type="logical" name="MIXFIRST"> F  </i>
     <i type="int" name="MAXMIX">   -45</i>
     <i name="WC">    100.00000000</i>
     <i type="int" name="INIMIX">     1</i>
     <i type="int" name="MIXPRE">     1</i>
     <i type="int" name="MREMOVE">     5</i>
    </separator>
   </separator>
   <separator name="electronic dipolcorrection" >
    <i type="logical" name="LDIPOL"> F  </i>
    <i type="logical" name="LMONO"> F  </i>
    <i type="int" name="IDIPOL">     0</i>
    <i name="EPSILON">      1.00000000</i>
    <v name="DIPOL">   -100.00000000   -100.00000000   -100.00000000</v>
    <i name="EFIELD">      0.00000000</i>
   </separator>
  </separator>
  <separator name="grids" >
   <i type="int" name="NGX">   224</i>
   <i type="int" name="NGY">   224</i>
   <i type="int" name="NGZ">   150</i>
   <i type="int" name="NGXF">   336</i>
   <i type="int" name="NGYF">   336</i>
   <i type="int" name="NGZF">   224</i>
   <i type="logical" name="ADDGRID"> F  </i>
  </separator>
  <separator name="ionic" >
   <i type="int" name="NSW">     0</i>
   <i type="int" name="IBRION">    -1</i>
   <i type="int" name="MDALGO">     0</i>
   <i type="int" name="ISIF">     2</i>
   <i name="PSTRESS">      0.00000000</i>
   <i name="EDIFFG">     -0.01000000</i>
   <i type="int" name="NFREE">     0</i>
   <i name="POTIM">      0.30000000</i>
   <i name="SMASS">     -3.00000000</i>
   <i name="SCALEE">      1.00000000</i>
  </separator>
  <separator name="ionic md" >
   <i name="TEBEG">      0.00010000</i>
   <i name="TEEND">      0.00010000</i>
   <i type="int" name="NBLOCK">     1</i>
   <i type="int" name="KBLOCK">     1</i>
   <i type="int" name="NPACO">   256</i>
   <i name="APACO">     16.00000000</i>
  </separator>
  <separator name="symmetry" >
   <i type="int" name="ISYM">     2</i>
   <i name="SYMPREC">      0.00001000</i>
  </separator>
  <separator name="dos" >
   <i type="int" name="LORBIT">     0</i>
   <v name="RWIGS">     -1.00000000     -1.00000000     -1.00000000</v>
   <i type="int" name="NEDOS">   301</i>
   <i name="EMIN">     10.00000000</i>
   <i name="EMAX">    -10.00000000</i>
   <i name="EFERMI">      0.00000000</i>
  </separator>
  <separator name="writing" >
   <i type="int" name="NWRITE">     0</i>
   <i type="logical" name="LWAVE"> F  </i>
   <i type="logical" name="LDOWNSAMPLE"> F  </i>
   <i type="logical" name="LCHARG"> F  </i>
   <i type="logical" name="LPARD"> F  </i>
   <i type="logical" name="LVTOT"> F  </i>
   <i type="logical" name="LVHAR"> F  </i>
   <i type="logical" name="LELF"> F  </i>
   <i type="logical" name="LOPTICS"> F  </i>
   <v name="STM">      0.00000000      0.00000000      0.00000000      0.00000000      0.00000000      0.00000000      0.00000000</v>
  </separator>
  <separator name="performance" >
   <i type="int" name="NPAR">    16</i>
   <i type="int" name="NSIM">     4</i>
   <i type="int" name="NBLK">    -1</i>
   <i type="logical" name="LPLANE"> T  </i>
   <i type="logical" name="LSCALAPACK"> T  </i>
   <i type="logical" name="LSCAAWARE"> F  </i>
   <i type="logical" name="LSCALU"> F  </i>
   <i type="logical" name="LASYNC"> F  </i>
   <i type="logical" name="LORBITALREAL"> F  </i>
  </separator>
  <separator name="miscellaneous" >
   <i type="int" name="IDIOT">     3</i>
   <i type="int" name="ISPECIAL">     0</i>
   <i type="logical" name="LMUSIC"> F  </i>
   <v name="POMASS">     14.00100000      1.00000000     12.01100000</v>
   <v name="DARWINR">      0.00000000      0.00000000      0.00000000</v>
   <v name="DARWINV">      1.00000000      1.00000000      1.00000000</v>
   <i type="logical" name="LCORR"> T  </i>
  </separator>
  <i type="logical" name="GGA_COMPAT"> T  </i>
  <i type="logical" name="LBERRY"> F  </i>
  <i type="int" name="ICORELEVEL">     0</i>
  <i type="logical" name="LDAU"> F  </i>
  <i type="int" name="I_CONSTRAINED_M">     0</i>
  <separator name="electronic exchange-correlation" >
   <i type="string" name="GGA">PE</i>
   <i type="int" name="VOSKOWN">     0</i>
   <i type="logical" name="LHFCALC"> F  </i>
   <i type="string" name="PRECFOCK"></i>
   <i type="logical" name="LSYMGRAD"> F  </i>
   <i type="logical" name="LHFONE"> F  </i>
   <i type="logical" name="LRHFCALC"> F  </i>
   <i type="logical" name="LTHOMAS"> F  </i>
   <i type="logical" name="LMODELHF"> F  </i>
   <i name="ENCUT4O">     -1.00000000</i>
   <i type="int" name="EXXOEP">     0</i>
   <i type="int" name="FOURORBIT">     0</i>
   <i name="AEXX">      0.00000000</i>
   <i name="HFALPHA">      0.00000000</i>
   <i name="MCALPHA">      0.00000000</i>
   <i name="ALDAX">      1.00000000</i>
   <i name="AGGAX">      1.00000000</i>
   <i name="ALDAC">      1.00000000</i>
   <i name="AGGAC">      1.00000000</i>
   <i type="int" name="NKREDX">     1</i>
   <i type="int" name="NKREDY">     1</i>
   <i type="int" name="NKREDZ">     1</i>
   <i type="logical" name="SHIFTRED"> F  </i>
   <i type="logical" name="ODDONLY"> F  </i>
   <i type="logical" name="EVENONLY"> F  </i>
   <i type="int" name="LMAXFOCK">     0</i>
   <i type="int" name="NMAXFOCKAE">     0</i>
   <i type="logical" name="LFOCKAEDFT"> F  </i>
   <i name="HFSCREEN">      0.00000000</i>
   <i name="HFSCREENC">      0.00000000</i>
   <i type="int" name="NBANDSGWLOW">     0</i>
  </separator>
  <separator name="vdW DFT" >
   <i type="logical" name="LUSE_VDW"> F  </i>
   <i name="Zab_VDW">     -0.84910000</i>
   <i name="PARAM1">      0.12340000</i>
   <i name="PARAM2">      1.00000000</i>
   <i name="PARAM3">      0.00000000</i>
  </separator>
  <separator name="model GW" >
   <i type="int" name="MODEL_GW">     0</i>
   <i name="MODEL_EPS0">     84.97523112</i>
   <i name="MODEL_ALPHA">      1.00000000</i>
  </separator>
  <separator name="linear response parameters" >
   <i type="logical" name="LEPSILON"> F  </i>
   <i type="logical" name="LRPA"> F  </i>
   <i type="logical" name="LNABLA"> F  </i>
   <i type="logical" name="LVEL"> F  </i>
   <i type="int" name="KINTER">     0</i>
   <i name="CSHIFT">      0.10000000</i>
   <i name="OMEGAMAX">     -1.00000000</i>
   <i name="DEG_THRESHOLD">      0.00200000</i>
   <i name="RTIME">     -0.10000000</i>
   <i name="WPLASMAI">      0.00000000</i>
   <v name="DFIELD">      0.00000000      0.00000000      0.00000000</v>
   <v name="WPLASMA">      0.00000000      0.00000000      0.00000000      0.00000000      0.00000000      0.00000000      0.00000000      0.00000000      0.00000000</v>
  </separator>
  <separator name="orbital magnetization" >
   <i type="logical" name="NUCIND"> F  </i>
   <v name="MAGPOS">      0.00000000      0.00000000      0.00000000</v>
   <i type="logical" name="LNICSALL"> T  </i>
   <i type="logical" name="ORBITALMAG"> F  </i>
   <i type="logical" name="LMAGBLOCH"> F  </i>
   <i type="logical" name="LCHIMAG"> F  </i>
   <i type="logical" name="LGAUGE"> T  </i>
   <i type="int" name="MAGATOM">     0</i>
   <v name="MAGDIPOL">      0.00000000      0.00000000      0.00000000</v>
   <v name="AVECCONST">      0.00000000      0.00000000      0.00000000</v>
  </separator>
  <separator name="response functions" >
   <i type="logical" name="LADDER"> F  </i>
   <i type="logical" name="LRPAFORCE"> F  </i>
   <i type="logical" name="LFXC"> F  </i>
   <i type="logical" name="LHARTREE"> T  </i>
   <i type="int" name="IBSE">     0</i>
   <v type="int" name="KPOINT">    -1     0     0     0</v>
   <i type="logical" name="LTCTE"> F  </i>
   <i type="logical" name="LTETE"> F  </i>
   <i type="logical" name="LTRIPLET"> F  </i>
   <i type="logical" name="LFXCEPS"> F  </i>
   <i type="logical" name="LFXHEG"> F  </i>
   <i type="int" name="NATURALO">     2</i>
   <i type="logical" name="L2ORDER"> F  </i>
   <i type="logical" name="LMP2LT"> F  </i>
   <i type="logical" name="LUSEW"> F  </i>
   <i name="ENCUTGW">     -2.00000000</i>
   <i name="ENCUTGWSOFT">     -2.00000000</i>
   <i name="ENCUTLF">     -1.00000000</i>
   <i type="int" name="LMAXMP2">    -1</i>
   <i name="SCISSOR">      0.00000000</i>
   <i type="int" name="NOMEGA">     0</i>
   <i type="int" name="NOMEGAR">     0</i>
   <i type="int" name="NBANDSGW">    -1</i>
   <i type="int" name="NBANDSO">    -1</i>
   <i type="int" name="NBANDSV">    -1</i>
   <i type="int" name="NELM">   200</i>
   <i type="int" name="NELMHF">     1</i>
   <i type="int" name="DIM">     3</i>
   <i type="int" name="ANTIRES">     0</i>
   <i name="OMEGAMAX">    -30.00000000</i>
   <i name="OMEGAMIN">    -30.00000000</i>
   <i name="OMEGATL">   -200.00000000</i>
   <i type="int" name="OMEGAGRID">   140</i>
   <i name="CSHIFT">     -0.10000000</i>
   <i type="logical" name="SELFENERGY"> F  </i>
   <i type="logical" name="LSPECTRAL"> F  </i>
   <i type="logical" name="LSPECTRALGW"> F  </i>
   <i type="logical" name="LSINGLES"> F  </i>
   <i type="logical" name="LFERMIGW"> F  </i>
   <i type="logical" name="ODDONLYGW"> F  </i>
   <i type="logical" name="EVENONLYGW"> F  </i>
   <i type="int" name="NKREDLFX">     1</i>
   <i type="int" name="NKREDLFY">     1</i>
   <i type="int" name="NKREDLFZ">     1</i>
   <i type="int" name="MAXMEM">  2800</i>
   <i type="int" name="TELESCOPE">     0</i>
   <i type="int" name="TAUPAR">     1</i>
   <i type="int" name="OMEGAPAR">    -1</i>
   <i name="LAMBDA">      1.00000000</i>
  </separator>
  <separator name="External order field" >
   <i name="OFIELD_KAPPA">      0.00000000</i>
   <v name="OFIELD_K">      0.00000000      0.00000000      0.00000000</v>
   <i name="OFIELD_Q6_NEAR">      0.00000000</i>
   <i name="OFIELD_Q6_FAR">      0.00000000</i>
   <i name="OFIELD_A">      0.00000000</i>
  </separator>
  <separator name="solvation model" >
   <i type="logical" name="LSOL"> F  </i>
  </separator>
 </parameters>
 <atominfo>
  <atoms>     108 </atoms>
  <types>       3 </types>
  <array name="atoms" >
   <dimension dim="1">ion</dimension>
   <field type="string">element</field>
   <field type="int">atomtype</field>
   <set>
    <rc><c>N </c><c>   1</c></rc>
    <rc><c>N </c><c>   1</c></rc>
    <rc><c>N </c><c>   1</c></rc>
    <rc><c>N </c><c>   1</c></rc>
    <rc><c>N </c><c>   1</c></rc>
    <rc><c>N </c><c>   1</c></rc>
    <rc><c>N </c><c>   1</c></rc>
    <rc><c>N </c><c>   1</c></rc>
    <rc><c>N </c><c>   1</c></rc>
    <rc><c>N </c><c>   1</c></rc>
    <rc><c>N </c><c>   1</c></rc>
    <rc><c>N </c><c>   1</c></rc>
    <rc><c>H </c><c>   2</c></rc>
    <rc><c>H </c><c>   2</c></rc>
    <rc><c>H </c><c>   2</c></rc>
    <rc><c>H </c><c>   2</c></rc>
    <rc><c>H </c><c>   2</c></rc>
    <rc><c>H </c><c>   2</c></rc>
    <rc><c>H </c><c>   2</c></rc>
    <rc><c>H </c><c>   2</c></rc>
    <rc><c>H </c><c>   2</c></rc>
    <rc><c>H </c><c>   2</c></rc>
    <rc><c>H </c><c>   2</c></rc>
    <rc><c>H </c><c>   2</c></rc>
    <rc><c>H </c><c>   2</c></rc>
    <rc><c>H </c><c>   2</c></rc>
    <rc><c>H </c><c>   2</c></rc>
    <rc><c>H </c><c>   2</c></rc>
    <rc><c>H </c><c>   2</c></rc>
    <rc><c>H </c><c>   2</c></rc>
    <rc><c>H </c><c>   2</c></rc>
    <rc><c>H </c><c>   2</c></rc>
    <rc><c>H </c><c>   2</c></rc>
    <rc><c>H </c><c>   2</c></rc>
    <rc><c>H </c><c>   2</c></rc>
    <rc><c>H </c><c>   2</c></rc>
    <rc><c>H </c><c>   2</c></rc>
    <rc><c>H </c><c>   2</c></rc>
    <rc><c>H </c><c>   2</c></rc>
    <rc><c>H </c><c>   2</c></rc>
    <rc><c>H </c><c>   2</c></rc>
    <rc><c>H </c><c>   2</c></rc>
    <rc><c>H </c><c>   2</c></rc>
    <rc><c>H </c><c>   2</c></rc>
    <rc><c>H </c><c>   2</c></rc>
    <rc><c>H </c><c>   2</c></rc>
    <rc><c>H </c><c>   2</c></rc>
    <rc><c>H </c><c>   2</c></rc>
    <rc><c>H </c><c>   2</c></rc>
    <rc><c>H </c><c>   2</c></rc>
    <rc><c>H </c><c>   2</c></rc>
    <rc><c>H </c><c>   2</c></rc>
    <rc><c>H </c><c>   2</c></rc>
    <rc><c>H </c><c>   2</c></rc>
    <rc><c>C </c><c>   3</c></rc>
    <rc><c>C </c><c>   3</c></rc>
    <rc><c>C </c><c>   3</c></rc>
    <rc><c>C </c><c>   3</c></rc>
    <rc><c>C </c><c>   3</c></rc>
    <rc><c>C </c><c>   3</c></rc>
    <rc><c>C </c><c>   3</c></rc>
    <rc><c>C </c><c>   3</c></rc>
    <rc><c>C </c><c>   3</c></rc>
    <rc><c>C </c><c>   3</c></rc>
    <rc><c>C </c><c>   3</c></rc>
    <rc><c>C </c><c>   3</c></rc>
    <rc><c>C </c><c>   3</c></rc>
    <rc><c>C </c><c>   3</c></rc>
    <rc><c>C </c><c>   3</c></rc>
    <rc><c>C </c><c>   3</c></rc>
    <rc><c>C </c><c>   3</c></rc>
    <rc><c>C </c><c>   3</c></rc>
    <rc><c>C </c><c>   3</c></rc>
    <rc><c>C </c><c>   3</c></rc>
    <rc><c>C </c><c>   3</c></rc>
    <rc><c>C </c><c>   3</c></rc>
    <rc><c>C </c><c>   3</c></rc>
    <rc><c>C </c><c>   3</c></rc>
    <rc><c>C </c><c>   3</c></rc>
    <rc><c>C </c><c>   3</c></rc>
    <rc><c>C </c><c>   3</c></rc>
    <rc><c>C </c><c>   3</c></rc>
    <rc><c>C </c><c>   3</c></rc>
    <rc><c>C </c><c>   3</c></rc>
    <rc><c>C </c><c>   3</c></rc>
    <rc><c>C </c><c>   3</c></rc>
    <rc><c>C </c><c>   3</c></rc>
    <rc><c>C </c><c>   3</c></rc>
    <rc><c>C </c><c>   3</c></rc>
    <rc><c>C </c><c>   3</c></rc>
    <rc><c>C </c><c>   3</c></rc>
    <rc><c>C </c><c>   3</c></rc>
    <rc><c>C </c><c>   3</c></rc>
    <rc><c>C </c><c>   3</c></rc>
    <rc><c>C </c><c>   3</c></rc>
    <rc><c>C </c><c>   3</c></rc>
    <rc><c>C </c><c>   3</c></rc>
    <rc><c>C </c><c>   3</c></rc>
    <rc><c>C </c><c>   3</c></rc>
    <rc><c>C </c><c>   3</c></rc>
    <rc><c>C </c><c>   3</c></rc>
    <rc><c>C </c><c>   3</c></rc>
    <rc><c>C </c><c>   3</c></rc>
    <rc><c>C </c><c>   3</c></rc>
    <rc><c>C </c><c>   3</c></rc>
    <rc><c>C </c><c>   3</c></rc>
    <rc><c>C </c><c>   3</c></rc>
    <rc><c>C </c><c>   3</c></rc>
   </set>
  </array>
  <array name="atomtypes" >
   <dimension dim="1">type</dimension>
   <field type="int">atomspertype</field>
   <field type="string">element</field>
   <field>mass</field>
   <field>valence</field>
   <field type="string">pseudopotential</field>
   <set>
    <rc><c>  12</c><c>N </c><c>     14.00100000</c><c>      5.00000000</c><c>  PAW_PBE N 08Apr2002                   </c></rc>
    <rc><c>  42</c><c>H </c><c>      1.00000000</c><c>      1.00000000</c><c>  PAW_PBE H 15Jun2001                   </c></rc>
    <rc><c>  54</c><c>C </c><c>     12.01100000</c><c>      4.00000000</c><c>  PAW_PBE C 08Apr2002                   </c></rc>
   </set>
  </array>
 </atominfo>
 <structure name="initialpos" >
  <crystal>
   <varray name="basis" >
    <v>      29.71288216       0.01239640       0.00000000 </v>
    <v>     -14.84571634      25.73271224       0.00000000 </v>
    <v>       0.00000000       0.00000000      20.00000000 </v>
   </varray>
   <i name="volume">  15295.54160085 </i>
   <varray name="rec_basis" >
    <v>       0.03364734       0.01941182       0.00000000 </v>
    <v>      -0.00001621       0.03885169       0.00000000 </v>
    <v>       0.00000000       0.00000000       0.05000000 </v>
   </varray>
  </crystal>
  <varray name="positions" >
   <v>       0.59994667       0.02403768       0.44817994 </v>
   <v>       0.62155348       0.39708504       0.51178589 </v>
   <v>       0.60480949       0.22577002       0.51126647 </v>
   <v>       0.77612597       0.38022698       0.51189162 </v>
   <v>       0.37178942       0.59831787       0.48457590 </v>
   <v>       0.40340387       0.77506551       0.48411586 </v>
   <v>       0.22679413       0.63002602       0.48427433 </v>
   <v>       0.48710671       0.51064985       0.63490463 </v>
   <v>       0.02406022       0.51467720       0.63482654 </v>
   <v>       0.49072736       0.97769295       0.63488272 </v>
   <v>       0.42435881       0.40120957       0.44863041 </v>
   <v>       0.97736793       0.57724624       0.44819949 </v>
   <v>       0.52071180       0.01478675       0.63276709 </v>
   <v>       0.71151712       0.28176575       0.51223103 </v>
   <v>       0.72003648       0.43090140       0.51280081 </v>
   <v>       0.57098560       0.29041901       0.51219212 </v>
   <v>       0.29958552       0.72906308       0.48552392 </v>
   <v>       0.27284621       0.57220244       0.48620755 </v>
   <v>       0.42963804       0.70219595       0.48597571 </v>
   <v>       0.56947563       0.52899130       0.55417241 </v>
   <v>       0.61602473       0.47886922       0.54278708 </v>
   <v>       0.44233068       0.56815533       0.62912561 </v>
   <v>       0.47149778       0.51335127       0.67870048 </v>
   <v>       0.49423481       0.48065350       0.63266221 </v>
   <v>       0.40988166       0.61992284       0.57650921 </v>
   <v>       0.95992497       0.43231770       0.55463066 </v>
   <v>       0.86332798       0.38590051       0.54333048 </v>
   <v>       0.12627648       0.55958171       0.62895466 </v>
   <v>       0.04238742       0.53033934       0.67858853 </v>
   <v>       0.98694542       0.50752423       0.63262919 </v>
   <v>       0.21041873       0.59206580       0.57629476 </v>
   <v>       0.47283447       0.04226905       0.55432780 </v>
   <v>       0.52324102       0.13887778       0.54271390 </v>
   <v>       0.43330972       0.87552719       0.62883839 </v>
   <v>       0.48803856       0.95930320       0.67860495 </v>
   <v>       0.38165907       0.79143951       0.57603077 </v>
   <v>       0.45771752       0.50102319       0.40843612 </v>
   <v>       0.41418524       0.55419286       0.41693116 </v>
   <v>       0.48229776       0.35702554       0.44266148 </v>
   <v>       0.40260442       0.41649338       0.46538688 </v>
   <v>       0.40430028       0.36221049       0.44191010 </v>
   <v>       0.55614843       0.34777034       0.45470124 </v>
   <v>       0.04359971       0.54374056       0.40830696 </v>
   <v>       0.14024111       0.58731793       0.41667096 </v>
   <v>       0.87526257       0.51947529       0.44248015 </v>
   <v>       0.01437672       0.59898912       0.46494778 </v>
   <v>       0.95847616       0.59737134       0.44140916 </v>
   <v>       0.79213407       0.44572908       0.45501048 </v>
   <v>       0.50043977       0.95828548       0.40832529 </v>
   <v>       0.44744496       0.86162416       0.41660907 </v>
   <v>       0.64459390       0.12618250       0.44233679 </v>
   <v>       0.58459315       0.98704006       0.46506589 </v>
   <v>       0.63892687       0.04276997       0.44133271 </v>
   <v>       0.65431881       0.20952880       0.45472656 </v>
   <v>       0.64314571       0.36466202       0.50779852 </v>
   <v>       0.61318810       0.31015272       0.50817691 </v>
   <v>       0.63726547       0.27974393       0.50750299 </v>
   <v>       0.69177353       0.30425213       0.50822371 </v>
   <v>       0.72214929       0.35870986       0.50786835 </v>
   <v>       0.69759864       0.38870990       0.50853459 </v>
   <v>       0.35335148       0.63335295       0.48932346 </v>
   <v>       0.38788484       0.68706354       0.48895939 </v>
   <v>       0.36845863       0.72160824       0.48900294 </v>
   <v>       0.31475017       0.70245471       0.48871944 </v>
   <v>       0.28023976       0.64852064       0.48912550 </v>
   <v>       0.29942583       0.61396493       0.48910130 </v>
   <v>       0.42534499       0.56415305       0.52375159 </v>
   <v>       0.44526071       0.55279622       0.58061674 </v>
   <v>       0.46827594       0.52140773       0.57718839 </v>
   <v>       0.47312030       0.50261453       0.51370323 </v>
   <v>       0.49926644       0.47146813       0.50642969 </v>
   <v>       0.55028337       0.49081151       0.53040626 </v>
   <v>       0.57658279       0.46342585       0.52411518 </v>
   <v>       0.40137577       0.59673843       0.53007801 </v>
   <v>       0.13916022       0.57639300       0.52352996 </v>
   <v>       0.10795614       0.55653978       0.58044368 </v>
   <v>       0.05357786       0.53346108       0.57707398 </v>
   <v>       0.02989730       0.52852351       0.51361491 </v>
   <v>       0.97264781       0.50242944       0.50643949 </v>
   <v>       0.94097704       0.45150665       0.53069771 </v>
   <v>       0.88732907       0.42528163       0.52447534 </v>
   <v>       0.19568708       0.60046377       0.52981986 </v>
   <v>       0.43739565       0.86268748       0.52342528 </v>
   <v>       0.44868646       0.89386417       0.58036239 </v>
   <v>       0.48004623       0.94824062       0.57707322 </v>
   <v>       0.49884544       0.97194256       0.51363714 </v>
   <v>       0.53008989       0.02918979       0.50640277 </v>
   <v>       0.51096841       0.06105609       0.53046246 </v>
   <v>       0.53850008       0.11469752       0.52403988 </v>
   <v>       0.40488434       0.80616724       0.52964854 </v>
   <v>       0.45320489       0.51497749       0.45706701 </v>
   <v>       0.42921571       0.54472698       0.46117051 </v>
   <v>       0.55183834       0.41464753       0.49221106 </v>
   <v>       0.50134665       0.39489030       0.46751611 </v>
   <v>       0.47416922       0.42211102       0.47444995 </v>
   <v>       0.57730157       0.38366006       0.48488615 </v>
   <v>       0.06210295       0.54834332       0.45692174 </v>
   <v>       0.11581006       0.57237107       0.46095467 </v>
   <v>       0.86332062       0.45000546       0.49239138 </v>
   <v>       0.89405248       0.50043130       0.46746663 </v>
   <v>       0.94842411       0.52752338       0.47428880 </v>
   <v>       0.80690613       0.42454374       0.48510039 </v>
   <v>       0.48649696       0.93975510       0.45691641 </v>
   <v>       0.45682567       0.88604619       0.46089123 </v>
   <v>       0.58722006       0.13849123       0.49200860 </v>
   <v>       0.60677405       0.10756138       0.46727543 </v>
   <v>       0.57935764       0.05319812       0.47421986 </v>
   <v>       0.61831368       0.19489310       0.48464174 </v>
  </varray>
 </structure>
 <calculation>
  <scstep>
   <time name="dav">  307.88  311.22</time>
   <time name="total">  308.16  311.52</time>
   <energy>
    <i name="alphaZ">     30.55956102 </i>
    <i name="ewald">  36175.48195513 </i>
    <i name="hartreedc"> -45716.30809285 </i>
    <i name="XCdc">   1100.88141523 </i>
    <i name="pawpsdc">  29281.05428662 </i>
    <i name="pawaedc"> -29336.42409851 </i>
    <i name="eentropy">     -0.00000000 </i>
    <i name="bandstr">  -3918.15431531 </i>
    <i name="atom">  11644.86301871 </i>
    <i name="e_fr_energy">   -738.04626996 </i>
    <i name="e_wo_entrp">   -738.04626996 </i>
    <i name="e_0_energy">   -738.04626996 </i>
   </energy>
  </scstep>
  <scstep>
   <time name="dav">  351.97  355.80</time>
   <time name="total">  351.99  355.82</time>
   <energy>
    <i name="e_fr_energy">   -738.43344057 </i>
    <i name="e_wo_entrp">   -738.43344057 </i>
    <i name="e_0_energy">   -738.43344057 </i>
   </energy>
  </scstep>
  <scstep>
   <time name="dav">  391.43  395.52</time>
   <time name="total">  391.43  395.53</time>
   <energy>
    <i name="e_fr_energy">   -738.44420595 </i>
    <i name="e_wo_entrp">   -738.44420595 </i>
    <i name="e_0_energy">   -738.44420595 </i>
   </energy>
  </scstep>
  <scstep>
   <time name="dav">  345.59  349.11</time>
   <time name="total">  345.60  349.12</time>
   <energy>
    <i name="e_fr_energy">   -738.44436621 </i>
    <i name="e_wo_entrp">   -738.44436621 </i>
    <i name="e_0_energy">   -738.44436621 </i>
   </energy>
  </scstep>
  <scstep>
   <time name="dav">  333.17  336.63</time>
   <time name="total">  333.18  336.64</time>
   <energy>
    <i name="alphaZ">     30.55956102 </i>
    <i name="ewald">  36175.48195513 </i>
    <i name="hartreedc"> -45716.30809285 </i>
    <i name="XCdc">   1100.88141523 </i>
    <i name="pawpsdc">  29281.05428662 </i>
    <i name="pawaedc"> -29336.42409851 </i>
    <i name="eentropy">     -0.00000000 </i>
    <i name="bandstr">  -3918.55241908 </i>
    <i name="atom">  11644.86301871 </i>
    <i name="e_fr_energy">   -738.44437373 </i>
    <i name="e_wo_entrp">   -738.44437373 </i>
    <i name="e_0_energy">   -738.44437373 </i>
   </energy>
  </scstep>
  <structure>
   <crystal>
    <varray name="basis" >
     <v>      29.71288216       0.01239640       0.00000000 </v>
     <v>     -14.84571634      25.73271224       0.00000000 </v>
     <v>       0.00000000       0.00000000      20.00000000 </v>
    </varray>
    <i name="volume">  15295.54160085 </i>
    <varray name="rec_basis" >
     <v>       0.03364734       0.01941182       0.00000000 </v>
     <v>      -0.00001621       0.03885169       0.00000000 </v>
     <v>       0.00000000       0.00000000       0.05000000 </v>
    </varray>
   </crystal>
   <varray name="positions" >
    <v>       0.59994667       0.02403768       0.44817994 </v>
    <v>       0.62155348       0.39708504       0.51178589 </v>
    <v>       0.60480949       0.22577002       0.51126647 </v>
    <v>       0.77612597       0.38022698       0.51189162 </v>
    <v>       0.37178942       0.59831787       0.48457590 </v>
    <v>       0.40340387       0.77506551       0.48411586 </v>
    <v>       0.22679413       0.63002602       0.48427433 </v>
    <v>       0.48710671       0.51064985       0.63490463 </v>
    <v>       0.02406022       0.51467720       0.63482654 </v>
    <v>       0.49072736       0.97769295       0.63488272 </v>
    <v>       0.42435881       0.40120957       0.44863041 </v>
    <v>       0.97736793       0.57724624       0.44819949 </v>
    <v>       0.52071180       0.01478675       0.63276709 </v>
    <v>       0.71151712       0.28176575       0.51223103 </v>
    <v>       0.72003648       0.43090140       0.51280081 </v>
    <v>       0.57098560       0.29041901       0.51219212 </v>
    <v>       0.29958552       0.72906308       0.48552392 </v>
    <v>       0.27284621       0.57220244       0.48620755 </v>
    <v>       0.42963804       0.70219595       0.48597571 </v>
    <v>       0.56947563       0.52899130       0.55417241 </v>
    <v>       0.61602473       0.47886922       0.54278708 </v>
    <v>       0.44233068       0.56815533       0.62912561 </v>
    <v>       0.47149778       0.51335127       0.67870048 </v>
    <v>       0.49423481       0.48065350       0.63266221 </v>
    <v>       0.40988166       0.61992284       0.57650921 </v>
    <v>       0.95992497       0.43231770       0.55463066 </v>
    <v>       0.86332798       0.38590051       0.54333048 </v>
    <v>       0.12627648       0.55958171       0.62895466 </v>
    <v>       0.04238742       0.53033934       0.67858853 </v>
    <v>       0.98694542       0.50752423       0.63262919 </v>
    <v>       0.21041873       0.59206580       0.57629476 </v>
    <v>       0.47283447       0.04226905       0.55432780 </v>
    <v>       0.52324102       0.13887778       0.54271390 </v>
    <v>       0.43330972       0.87552719       0.62883839 </v>
    <v>       0.48803856       0.95930320       0.67860495 </v>
    <v>       0.38165907       0.79143951       0.57603077 </v>
    <v>       0.45771752       0.50102319       0.40843612 </v>
    <v>       0.41418524       0.55419286       0.41693116 </v>
    <v>       0.48229776       0.35702554       0.44266148 </v>
    <v>       0.40260442       0.41649338       0.46538688 </v>
    <v>       0.40430028       0.36221049       0.44191010 </v>
    <v>       0.55614843       0.34777034       0.45470124 </v>
    <v>       0.04359971       0.54374056       0.40830696 </v>
    <v>       0.14024111       0.58731793       0.41667096 </v>
    <v>       0.87526257       0.51947529       0.44248015 </v>
    <v>       0.01437672       0.59898912       0.46494778 </v>
    <v>       0.95847616       0.59737134       0.44140916 </v>
    <v>       0.79213407       0.44572908       0.45501048 </v>
    <v>       0.50043977       0.95828548       0.40832529 </v>
    <v>       0.44744496       0.86162416       0.41660907 </v>
    <v>       0.64459390       0.12618250       0.44233679 </v>
    <v>       0.58459315       0.98704006       0.46506589 </v>
    <v>       0.63892687       0.04276997       0.44133271 </v>
    <v>       0.65431881       0.20952880       0.45472656 </v>
    <v>       0.64314571       0.36466202       0.50779852 </v>
    <v>       0.61318810       0.31015272       0.50817691 </v>
    <v>       0.63726547       0.27974393       0.50750299 </v>
    <v>       0.69177353       0.30425213       0.50822371 </v>
    <v>       0.72214929       0.35870986       0.50786835 </v>
    <v>       0.69759864       0.38870990       0.50853459 </v>
    <v>       0.35335148       0.63335295       0.48932346 </v>
    <v>       0.38788484       0.68706354       0.48895939 </v>
    <v>       0.36845863       0.72160824       0.48900294 </v>
    <v>       0.31475017       0.70245471       0.48871944 </v>
    <v>       0.28023976       0.64852064       0.48912550 </v>
    <v>       0.29942583       0.61396493       0.48910130 </v>
    <v>       0.42534499       0.56415305       0.52375159 </v>
    <v>       0.44526071       0.55279622       0.58061674 </v>
    <v>       0.46827594       0.52140773       0.57718839 </v>
    <v>       0.47312030       0.50261453       0.51370323 </v>
    <v>       0.49926644       0.47146813       0.50642969 </v>
    <v>       0.55028337       0.49081151       0.53040626 </v>
    <v>       0.57658279       0.46342585       0.52411518 </v>
    <v>       0.40137577       0.59673843       0.53007801 </v>
    <v>       0.13916022       0.57639300       0.52352996 </v>
    <v>       0.10795614       0.55653978       0.58044368 </v>
    <v>       0.05357786       0.53346108       0.57707398 </v>
    <v>       0.02989730       0.52852351       0.51361491 </v>
    <v>       0.97264781       0.50242944       0.50643949 </v>
    <v>       0.94097704       0.45150665       0.53069771 </v>
    <v>       0.88732907       0.42528163       0.52447534 </v>
    <v>       0.19568708       0.60046377       0.52981986 </v>
    <v>       0.43739565       0.86268748       0.52342528 </v>
    <v>       0.44868646       0.89386417       0.58036239 </v>
    <v>       0.48004623       0.94824062       0.57707322 </v>
    <v>       0.49884544       0.97194256       0.51363714 </v>
    <v>       0.53008989       0.02918979       0.50640277 </v>
    <v>       0.51096841       0.06105609       0.53046246 </v>
    <v>       0.53850008       0.11469752       0.52403988 </v>
    <v>       0.40488434       0.80616724       0.52964854 </v>
    <v>       0.45320489       0.51497749       0.45706701 </v>
    <v>       0.42921571       0.54472698       0.46117051 </v>
    <v>       0.55183834       0.41464753       0.49221106 </v>
    <v>       0.50134665       0.39489030       0.46751611 </v>
    <v>       0.47416922       0.42211102       0.47444995 </v>
    <v>       0.57730157       0.38366006       0.48488615 </v>
    <v>       0.06210295       0.54834332       0.45692174 </v>
    <v>       0.11581006       0.57237107       0.46095467 </v>
    <v>       0.86332062       0.45000546       0.49239138 </v>
    <v>       0.89405248       0.50043130       0.46746663 </v>
    <v>       0.94842411       0.52752338       0.47428880 </v>
    <v>       0.80690613       0.42454374       0.48510039 </v>
    <v>       0.48649696       0.93975510       0.45691641 </v>
    <v>       0.45682567       0.88604619       0.46089123 </v>
    <v>       0.58722006       0.13849123       0.49200860 </v>
    <v>       0.60677405       0.10756138       0.46727543 </v>
    <v>       0.57935764       0.05319812       0.47421986 </v>
    <v>       0.61831368       0.19489310       0.48464174 </v>
   </varray>
  </structure>
  <varray name="forces" >
   <v>      -0.00113429      -0.00023110       0.00226093 </v>
   <v>      -0.00102211       0.00008066       0.00089143 </v>
   <v>       0.00097220      -0.00039962      -0.00034728 </v>
   <v>       0.00612614       0.00723628      -0.00163084 </v>
   <v>      -0.00115928       0.00130143       0.00037972 </v>
   <v>      -0.00021371       0.00411665       0.00138232 </v>
   <v>      -0.00390962       0.00064308       0.00080555 </v>
   <v>      -0.00164114       0.00011498      -0.00132484 </v>
   <v>       0.00201280       0.00081054       0.00054029 </v>
   <v>      -0.00953754      -0.00125505      -0.00098159 </v>
   <v>      -0.00039178       0.00025854      -0.00024786 </v>
   <v>      -0.00119728      -0.00148144      -0.00130599 </v>
   <v>      -0.00095649       0.00085438      -0.00075151 </v>
   <v>       0.00177772      -0.00039280       0.00112755 </v>
   <v>       0.00030879      -0.00073546       0.00098129 </v>
   <v>       0.00153815       0.00043796      -0.00084611 </v>
   <v>      -0.00020464       0.00160631       0.00059395 </v>
   <v>      -0.00099774       0.00252108       0.00016764 </v>
   <v>      -0.00059738       0.00074177      -0.00028332 </v>
   <v>      -0.00037681      -0.00110654      -0.00151092 </v>
   <v>      -0.00063404      -0.00037081      -0.00205388 </v>
   <v>       0.00060289       0.00190867       0.00046026 </v>
   <v>      -0.00000044       0.00080336      -0.00128346 </v>
   <v>      -0.00168685       0.00104886       0.00110370 </v>
   <v>       0.00071422       0.00180489      -0.00147278 </v>
   <v>       0.00286518      -0.00044059      -0.00176011 </v>
   <v>       0.00162878       0.00061563      -0.00105968 </v>
   <v>       0.00098304      -0.00084779      -0.00004200 </v>
   <v>       0.00063329      -0.00111374      -0.00130156 </v>
   <v>      -0.00088975       0.00037237       0.00097667 </v>
   <v>       0.00014756      -0.00153060      -0.00259810 </v>
   <v>      -0.00107825      -0.00131707      -0.00027188 </v>
   <v>       0.00143395      -0.00192109      -0.00099082 </v>
   <v>      -0.00054253       0.00080203      -0.00238533 </v>
   <v>      -0.00221077      -0.00122279      -0.00067550 </v>
   <v>      -0.00003215       0.00098440      -0.00102242 </v>
   <v>      -0.00044513      -0.00202300      -0.00084775 </v>
   <v>       0.00024454      -0.00244573       0.00191133 </v>
   <v>       0.00080485      -0.00082675       0.00133427 </v>
   <v>       0.00122298      -0.00218403      -0.00005719 </v>
   <v>      -0.00048562      -0.00069053       0.00131390 </v>
   <v>       0.00006781      -0.00172885       0.00201117 </v>
   <v>      -0.00037225       0.00150631      -0.00003200 </v>
   <v>      -0.00183070       0.00267386       0.00144304 </v>
   <v>       0.00054884      -0.00046651       0.00234172 </v>
   <v>       0.00175576       0.00135620       0.00117196 </v>
   <v>       0.00051165       0.00048099       0.00139400 </v>
   <v>      -0.00066166       0.00158691       0.00070283 </v>
   <v>       0.00274598      -0.00021875      -0.00105411 </v>
   <v>       0.00104573      -0.00107793      -0.00172211 </v>
   <v>       0.00193742       0.00051226       0.00039157 </v>
   <v>       0.00127753       0.00207255      -0.00033012 </v>
   <v>       0.00083910       0.00092362       0.00105444 </v>
   <v>       0.00076131       0.00005822       0.00041584 </v>
   <v>       0.00292508      -0.00029362       0.00031989 </v>
   <v>       0.00060803      -0.00196272       0.00104710 </v>
   <v>      -0.00146028       0.00242327       0.00007247 </v>
   <v>      -0.00021976      -0.00011693       0.00136967 </v>
   <v>      -0.00398667      -0.00361203      -0.00048312 </v>
   <v>      -0.00041875      -0.00016397       0.00185124 </v>
   <v>      -0.00097276      -0.00333061      -0.00036337 </v>
   <v>      -0.00043434       0.00210164       0.00014955 </v>
   <v>       0.00158236      -0.00342509      -0.00032590 </v>
   <v>      -0.00280784      -0.00127509       0.00000219 </v>
   <v>       0.00194855       0.00347586       0.00116686 </v>
   <v>      -0.00015035      -0.00020591      -0.00010593 </v>
   <v>      -0.00030881      -0.00068552      -0.00185857 </v>
   <v>       0.00331948      -0.00195791      -0.00016957 </v>
   <v>       0.00145695      -0.00109684      -0.00038215 </v>
   <v>      -0.00283345       0.00070548       0.00214347 </v>
   <v>      -0.00020017      -0.00175698       0.00013431 </v>
   <v>       0.00161080       0.00002215       0.00016942 </v>
   <v>       0.00060616       0.00144441       0.00023369 </v>
   <v>      -0.00196660       0.00137154      -0.00111601 </v>
   <v>      -0.00287036       0.00023668      -0.00167102 </v>
   <v>      -0.00189329      -0.00155317       0.00039533 </v>
   <v>       0.00151677       0.00104307       0.00166454 </v>
   <v>       0.00402813       0.00245535      -0.00059393 </v>
   <v>      -0.00227721       0.00234675      -0.00185518 </v>
   <v>      -0.00163731      -0.00260604      -0.00050016 </v>
   <v>       0.00205477      -0.00071608      -0.00061938 </v>
   <v>       0.00485467       0.00231545       0.00094906 </v>
   <v>      -0.00032601       0.00128427       0.00263034 </v>
   <v>      -0.00075077       0.00078995      -0.00067149 </v>
   <v>      -0.00350416      -0.00340397      -0.00579135 </v>
   <v>      -0.00034589      -0.00200372       0.00149823 </v>
   <v>       0.00118116      -0.00009063      -0.00153761 </v>
   <v>      -0.00026090       0.00303033      -0.00073678 </v>
   <v>      -0.00134843       0.00233616       0.00065829 </v>
   <v>       0.00013645       0.00015288      -0.00075707 </v>
   <v>      -0.00136948      -0.00067764       0.00153080 </v>
   <v>      -0.00147127      -0.00159828      -0.00182646 </v>
   <v>      -0.00131490      -0.00150198      -0.00060466 </v>
   <v>      -0.00053183      -0.00213382       0.00027652 </v>
   <v>      -0.00127047      -0.00096728       0.00033146 </v>
   <v>       0.00342136      -0.00110526       0.00033659 </v>
   <v>      -0.00015159       0.00131979       0.00050550 </v>
   <v>      -0.00069923       0.00095109      -0.00088721 </v>
   <v>       0.00220941       0.00335487      -0.00014067 </v>
   <v>      -0.00073224      -0.00077973       0.00055167 </v>
   <v>      -0.00029206      -0.00143771       0.00115295 </v>
   <v>      -0.00052645      -0.00572433       0.00271009 </v>
   <v>       0.00111157       0.00084710      -0.00022551 </v>
   <v>       0.00134080      -0.00027886       0.00063130 </v>
   <v>      -0.00012395      -0.00265375       0.00086832 </v>
   <v>       0.00007818      -0.00143234       0.00104196 </v>
   <v>       0.00294020       0.00058659      -0.00113635 </v>
   <v>      -0.00077157       0.00174691       0.00100038 </v>
  </varray>
  <varray name="stress" >
   <v>      -0.00203402       0.00071288       0.00410634 </v>
   <v>       0.00071288       0.00381299       0.00083947 </v>
   <v>       0.00410634       0.00083948      -0.16288926 </v>
  </varray>
  <energy>
   <i name="e_fr_energy">   -740.43334199 </i>
   <i name="e_wo_entrp">   -740.43334199 </i>
   <i name="e_0_energy">     -0.00000000 </i>
  </energy>
  <time name="totalsc"> 2053.83 2076.75</time>
  <eigenvalues>
   <array>
    <dimension dim="1">band</dimension>
    <dimension dim="2">kpoint</dimension>
    <dimension dim="3">spin</dimension>
    <field>eigene</field>
    <field>occ</field>
    <set>
     <set comment="spin 1">
      <set comment="kpoint 1">
       <r>  -23.1319    1.0000 </r>
       <r>  -23.1010    1.0000 </r>
       <r>  -23.0236    1.0000 </r>
       <r>  -23.0229    1.0000 </r>
       <r>  -22.9883    1.0000 </r>
       <r>  -22.9026    1.0000 </r>
       <r>  -22.9021    1.0000 </r>
       <r>  -22.8441    1.0000 </r>
       <r>  -22.8436    1.0000 </r>
       <r>  -22.7938    1.0000 </r>
       <r>  -22.7749    1.0000 </r>
       <r>  -22.7745    1.0000 </r>
       <r>  -20.9057    1.0000 </r>
       <r>  -20.8184    1.0000 </r>
       <r>  -20.8177    1.0000 </r>
       <r>  -20.8010    1.0000 </r>
       <r>  -20.6305    1.0000 </r>
       <r>  -20.6295    1.0000 </r>
       <r>  -20.2608    1.0000 </r>
       <r>  -20.0773    1.0000 </r>
       <r>  -19.3682    1.0000 </r>
       <r>  -19.3674    1.0000 </r>
       <r>  -19.0998    1.0000 </r>
       <r>  -18.5096    1.0000 </r>
       <r>  -18.5094    1.0000 </r>
       <r>  -18.0942    1.0000 </r>
       <r>  -17.9791    1.0000 </r>
       <r>  -17.9791    1.0000 </r>
       <r>  -17.9116    1.0000 </r>
       <r>  -17.9112    1.0000 </r>
       <r>  -17.8290    1.0000 </r>
       <r>  -17.7485    1.0000 </r>
       <r>  -17.7478    1.0000 </r>
       <r>  -17.6549    1.0000 </r>
       <r>  -17.2823    1.0000 </r>
       <r>  -17.2813    1.0000 </r>
       <r>  -16.2891    1.0000 </r>
       <r>  -16.1790    1.0000 </r>
       <r>  -16.1783    1.0000 </r>
       <r>  -15.4864    1.0000 </r>
       <r>  -15.4862    1.0000 </r>
       <r>  -15.3029    1.0000 </r>
       <r>  -15.0826    1.0000 </r>
       <r>  -15.0814    1.0000 </r>
       <r>  -15.0678    1.0000 </r>
       <r>  -14.7990    1.0000 </r>
       <r>  -14.7985    1.0000 </r>
       <r>  -14.6480    1.0000 </r>
       <r>  -14.5689    1.0000 </r>
       <r>  -14.5680    1.0000 </r>
       <r>  -14.2799    1.0000 </r>
       <r>  -14.2795    1.0000 </r>
       <r>  -14.2028    1.0000 </r>
       <r>  -13.9849    1.0000 </r>
       <r>  -13.3106    1.0000 </r>
       <r>  -13.3093    1.0000 </r>
       <r>  -13.2995    1.0000 </r>
       <r>  -13.2990    1.0000 </r>
       <r>  -12.8998    1.0000 </r>
       <r>  -12.8688    1.0000 </r>
       <r>  -12.6531    1.0000 </r>
       <r>  -12.6298    1.0000 </r>
       <r>  -12.6291    1.0000 </r>
       <r>  -12.5786    1.0000 </r>
       <r>  -12.5778    1.0000 </r>
       <r>  -12.3446    1.0000 </r>
       <r>  -12.3438    1.0000 </r>
       <r>  -12.3416    1.0000 </r>
       <r>  -12.1868    1.0000 </r>
       <r>  -11.9777    1.0000 </r>
       <r>  -11.7918    1.0000 </r>
       <r>  -11.7914    1.0000 </r>
       <r>  -11.5953    1.0000 </r>
       <r>  -11.4860    1.0000 </r>
       <r>  -11.4856    1.0000 </r>
       <r>  -11.3571    1.0000 </r>
       <r>  -11.3498    1.0000 </r>
       <r>  -11.2635    1.0000 </r>
       <r>  -11.2184    1.0000 </r>
       <r>  -11.2175    1.0000 </r>
       <r>  -11.2140    1.0000 </r>
       <r>  -11.1730    1.0000 </r>
       <r>  -11.1728    1.0000 </r>
       <r>  -10.8388    1.0000 </r>
       <r>  -10.7883    1.0000 </r>
       <r>  -10.7879    1.0000 </r>
       <r>  -10.3895    1.0000 </r>
       <r>  -10.3158    1.0000 </r>
       <r>  -10.3152    1.0000 </r>
       <r>  -10.2725    1.0000 </r>
       <r>  -10.2568    1.0000 </r>
       <r>  -10.2563    1.0000 </r>
       <r>  -10.1723    1.0000 </r>
       <r>  -10.1509    1.0000 </r>
       <r>  -10.1505    1.0000 </r>
       <r>  -10.1297    1.0000 </r>
       <r>  -10.1057    1.0000 </r>
       <r>  -10.1039    1.0000 </r>
       <r>   -9.9167    1.0000 </r>
       <r>   -9.8704    1.0000 </r>
       <r>   -9.8698    1.0000 </r>
       <r>   -9.5220    1.0000 </r>
       <r>   -9.4296    1.0000 </r>
       <r>   -9.4282    1.0000 </r>
       <r>   -9.3733    1.0000 </r>
       <r>   -9.3545    1.0000 </r>
       <r>   -9.3541    1.0000 </r>
       <r>   -9.2948    1.0000 </r>
       <r>   -9.0905    1.0000 </r>
       <r>   -9.0894    1.0000 </r>
       <r>   -8.9037    1.0000 </r>
       <r>   -8.7548    1.0000 </r>
       <r>   -8.7544    1.0000 </r>
       <r>   -8.6647    1.0000 </r>
       <r>   -8.6640    1.0000 </r>
       <r>   -8.5829    1.0000 </r>
       <r>   -8.4386    1.0000 </r>
       <r>   -8.4374    1.0000 </r>
       <r>   -8.3302    1.0000 </r>
       <r>   -8.3290    1.0000 </r>
       <r>   -8.3284    1.0000 </r>
       <r>   -8.2185    1.0000 </r>
       <r>   -8.1901    1.0000 </r>
       <r>   -8.1892    1.0000 </r>
       <r>   -8.0361    1.0000 </r>
       <r>   -8.0353    1.0000 </r>
       <r>   -7.9307    1.0000 </r>
       <r>   -7.8935    1.0000 </r>
       <r>   -7.8929    1.0000 </r>
       <r>   -7.8655    1.0000 </r>
       <r>   -7.7879    1.0000 </r>
       <r>   -7.4337    1.0000 </r>
       <r>   -7.4331    1.0000 </r>
       <r>   -7.2350    1.0000 </r>
       <r>   -7.2337    1.0000 </r>
       <r>   -7.1852    1.0000 </r>
       <r>   -6.8594    1.0000 </r>
       <r>   -6.7368    1.0000 </r>
       <r>   -6.7360    1.0000 </r>
       <r>   -6.4978    1.0000 </r>
       <r>   -6.4967    1.0000 </r>
       <r>   -6.0151    1.0000 </r>
       <r>   -6.0071    1.0000 </r>
       <r>   -6.0050    1.0000 </r>
       <r>   -5.7384    1.0000 </r>
       <r>   -5.7368    1.0000 </r>
       <r>   -5.6856    1.0000 </r>
       <r>   -5.6128    1.0000 </r>
       <r>   -5.5611    1.0000 </r>
       <r>   -5.0414    1.0000 </r>
       <r>   -5.0404    1.0000 </r>
       <r>   -4.9325    1.0000 </r>
       <r>   -4.9280    1.0000 </r>
       <r>   -4.9270    1.0000 </r>
       <r>   -4.7827    1.0000 </r>
       <r>   -4.7804    1.0000 </r>
       <r>   -4.6355    1.0000 </r>
       <r>   -4.5889    1.0000 </r>
       <r>   -4.5882    1.0000 </r>
       <r>   -2.4240    0.0000 </r>
       <r>   -2.4232    0.0000 </r>
       <r>   -2.2465    0.0000 </r>
       <r>   -1.9986    0.0000 </r>
       <r>   -1.9980    0.0000 </r>
       <r>   -1.7615    0.0000 </r>
       <r>   -0.9289    0.0000 </r>
       <r>   -0.9283    0.0000 </r>
       <r>   -0.9039    0.0000 </r>
       <r>   -0.7628    0.0000 </r>
       <r>   -0.7618    0.0000 </r>
       <r>   -0.7594    0.0000 </r>
       <r>   -0.5151    0.0000 </r>
       <r>   -0.5143    0.0000 </r>
       <r>   -0.4633    0.0000 </r>
       <r>   -0.3824    0.0000 </r>
       <r>   -0.3812    0.0000 </r>
       <r>   -0.2290    0.0000 </r>
       <r>   -0.2238    0.0000 </r>
       <r>   -0.2228    0.0000 </r>
       <r>   -0.1819    0.0000 </r>
       <r>   -0.1809    0.0000 </r>
       <r>   -0.0185    0.0000 </r>
       <r>    0.0225    0.0000 </r>
       <r>    0.1413    0.0000 </r>
       <r>    0.1916    0.0000 </r>
       <r>    0.1921    0.0000 </r>
       <r>    0.2740    0.0000 </r>
       <r>    0.2754    0.0000 </r>
       <r>    0.3187    0.0000 </r>
       <r>    0.3828    0.0000 </r>
       <r>    0.3840    0.0000 </r>
       <r>    0.4064    0.0000 </r>
       <r>    0.4243    0.0000 </r>
       <r>    0.4351    0.0000 </r>
       <r>    0.4359    0.0000 </r>
       <r>    0.5622    0.0000 </r>
       <r>    0.5672    0.0000 </r>
       <r>    0.5702    0.0000 </r>
       <r>    0.5962    0.0000 </r>
       <r>    0.6190    0.0000 </r>
       <r>    0.6192    0.0000 </r>
       <r>    0.6777    0.0000 </r>
       <r>    0.6806    0.0000 </r>
       <r>    0.7012    0.0000 </r>
       <r>    0.7315    0.0000 </r>
       <r>    0.7345    0.0000 </r>
       <r>    0.7412    0.0000 </r>
       <r>    0.7771    0.0000 </r>
       <r>    0.8158    0.0000 </r>
       <r>    0.8200    0.0000 </r>
       <r>    0.8223    0.0000 </r>
       <r>    0.8516    0.0000 </r>
       <r>    0.8598    0.0000 </r>
       <r>    0.8617    0.0000 </r>
       <r>    0.8836    0.0000 </r>
       <r>    0.9162    0.0000 </r>
       <r>    0.9318    0.0000 </r>
       <r>    0.9332    0.0000 </r>
       <r>    0.9659    0.0000 </r>
       <r>    0.9703    0.0000 </r>
       <r>    1.0597    0.0000 </r>
       <r>    1.0998    0.0000 </r>
       <r>    1.1014    0.0000 </r>
       <r>    1.1021    0.0000 </r>
      </set>
      <set comment="kpoint 2">
       <r>  -23.1319    1.0000 </r>
       <r>  -23.1010    1.0000 </r>
       <r>  -23.0236    1.0000 </r>
       <r>  -23.0229    1.0000 </r>
       <r>  -22.9884    1.0000 </r>
       <r>  -22.9025    1.0000 </r>
       <r>  -22.9021    1.0000 </r>
       <r>  -22.8441    1.0000 </r>
       <r>  -22.8436    1.0000 </r>
       <r>  -22.7938    1.0000 </r>
       <r>  -22.7749    1.0000 </r>
       <r>  -22.7745    1.0000 </r>
       <r>  -20.9057    1.0000 </r>
       <r>  -20.8194    1.0000 </r>
       <r>  -20.8177    1.0000 </r>
       <r>  -20.7998    1.0000 </r>
       <r>  -20.6307    1.0000 </r>
       <r>  -20.6295    1.0000 </r>
       <r>  -20.2605    1.0000 </r>
       <r>  -20.0775    1.0000 </r>
       <r>  -19.3678    1.0000 </r>
       <r>  -19.3674    1.0000 </r>
       <r>  -19.1003    1.0000 </r>
       <r>  -18.5095    1.0000 </r>
       <r>  -18.5089    1.0000 </r>
       <r>  -18.0953    1.0000 </r>
       <r>  -17.9791    1.0000 </r>
       <r>  -17.9786    1.0000 </r>
       <r>  -17.9116    1.0000 </r>
       <r>  -17.9112    1.0000 </r>
       <r>  -17.8290    1.0000 </r>
       <r>  -17.7493    1.0000 </r>
       <r>  -17.7478    1.0000 </r>
       <r>  -17.6536    1.0000 </r>
       <r>  -17.2827    1.0000 </r>
       <r>  -17.2814    1.0000 </r>
       <r>  -16.2889    1.0000 </r>
       <r>  -16.1791    1.0000 </r>
       <r>  -16.1783    1.0000 </r>
       <r>  -15.4863    1.0000 </r>
       <r>  -15.4860    1.0000 </r>
       <r>  -15.3033    1.0000 </r>
       <r>  -15.0827    1.0000 </r>
       <r>  -15.0814    1.0000 </r>
       <r>  -15.0679    1.0000 </r>
       <r>  -14.7988    1.0000 </r>
       <r>  -14.7981    1.0000 </r>
       <r>  -14.6481    1.0000 </r>
       <r>  -14.5690    1.0000 </r>
       <r>  -14.5679    1.0000 </r>
       <r>  -14.2819    1.0000 </r>
       <r>  -14.2795    1.0000 </r>
       <r>  -14.2009    1.0000 </r>
       <r>  -13.9850    1.0000 </r>
       <r>  -13.3106    1.0000 </r>
       <r>  -13.3093    1.0000 </r>
       <r>  -13.2995    1.0000 </r>
       <r>  -13.2990    1.0000 </r>
       <r>  -12.8998    1.0000 </r>
       <r>  -12.8688    1.0000 </r>
       <r>  -12.6531    1.0000 </r>
       <r>  -12.6298    1.0000 </r>
       <r>  -12.6291    1.0000 </r>
       <r>  -12.5785    1.0000 </r>
       <r>  -12.5777    1.0000 </r>
       <r>  -12.3534    1.0000 </r>
       <r>  -12.3438    1.0000 </r>
       <r>  -12.3328    1.0000 </r>
       <r>  -12.1868    1.0000 </r>
       <r>  -11.9777    1.0000 </r>
       <r>  -11.7919    1.0000 </r>
       <r>  -11.7916    1.0000 </r>
       <r>  -11.5950    1.0000 </r>
       <r>  -11.4861    1.0000 </r>
       <r>  -11.4856    1.0000 </r>
       <r>  -11.3571    1.0000 </r>
       <r>  -11.3498    1.0000 </r>
       <r>  -11.2635    1.0000 </r>
       <r>  -11.2184    1.0000 </r>
       <r>  -11.2175    1.0000 </r>
       <r>  -11.2140    1.0000 </r>
       <r>  -11.1730    1.0000 </r>
       <r>  -11.1728    1.0000 </r>
       <r>  -10.8391    1.0000 </r>
       <r>  -10.7882    1.0000 </r>
       <r>  -10.7877    1.0000 </r>
       <r>  -10.3895    1.0000 </r>
       <r>  -10.3160    1.0000 </r>
       <r>  -10.3153    1.0000 </r>
       <r>  -10.2725    1.0000 </r>
       <r>  -10.2568    1.0000 </r>
       <r>  -10.2563    1.0000 </r>
       <r>  -10.1723    1.0000 </r>
       <r>  -10.1510    1.0000 </r>
       <r>  -10.1505    1.0000 </r>
       <r>  -10.1297    1.0000 </r>
       <r>  -10.1057    1.0000 </r>
       <r>  -10.1039    1.0000 </r>
       <r>   -9.9167    1.0000 </r>
       <r>   -9.8705    1.0000 </r>
       <r>   -9.8698    1.0000 </r>
       <r>   -9.5217    1.0000 </r>
       <r>   -9.4296    1.0000 </r>
       <r>   -9.4282    1.0000 </r>
       <r>   -9.3734    1.0000 </r>
       <r>   -9.3544    1.0000 </r>
       <r>   -9.3540    1.0000 </r>
       <r>   -9.2950    1.0000 </r>
       <r>   -9.0913    1.0000 </r>
       <r>   -9.0894    1.0000 </r>
       <r>   -8.9029    1.0000 </r>
       <r>   -8.7548    1.0000 </r>
       <r>   -8.7543    1.0000 </r>
       <r>   -8.6647    1.0000 </r>
       <r>   -8.6641    1.0000 </r>
       <r>   -8.5831    1.0000 </r>
       <r>   -8.4385    1.0000 </r>
       <r>   -8.4373    1.0000 </r>
       <r>   -8.3302    1.0000 </r>
       <r>   -8.3290    1.0000 </r>
       <r>   -8.3283    1.0000 </r>
       <r>   -8.2197    1.0000 </r>
       <r>   -8.1893    1.0000 </r>
       <r>   -8.1888    1.0000 </r>
       <r>   -8.0361    1.0000 </r>
       <r>   -8.0353    1.0000 </r>
       <r>   -7.9306    1.0000 </r>
       <r>   -7.8934    1.0000 </r>
       <r>   -7.8929    1.0000 </r>
       <r>   -7.8656    1.0000 </r>
       <r>   -7.7881    1.0000 </r>
       <r>   -7.4336    1.0000 </r>
       <r>   -7.4331    1.0000 </r>
       <r>   -7.2360    1.0000 </r>
       <r>   -7.2337    1.0000 </r>
       <r>   -7.1840    1.0000 </r>
       <r>   -6.8603    1.0000 </r>
       <r>   -6.7361    1.0000 </r>
       <r>   -6.7358    1.0000 </r>
       <r>   -6.4979    1.0000 </r>
       <r>   -6.4967    1.0000 </r>
       <r>   -6.0178    1.0000 </r>
       <r>   -6.0054    1.0000 </r>
       <r>   -6.0040    1.0000 </r>
       <r>   -5.7383    1.0000 </r>
       <r>   -5.7368    1.0000 </r>
       <r>   -5.6856    1.0000 </r>
       <r>   -5.6129    1.0000 </r>
       <r>   -5.5611    1.0000 </r>
       <r>   -5.0414    1.0000 </r>
       <r>   -5.0404    1.0000 </r>
       <r>   -4.9325    1.0000 </r>
       <r>   -4.9279    1.0000 </r>
       <r>   -4.9270    1.0000 </r>
       <r>   -4.7827    1.0000 </r>
       <r>   -4.7804    1.0000 </r>
       <r>   -4.6355    1.0000 </r>
       <r>   -4.5890    1.0000 </r>
       <r>   -4.5882    1.0000 </r>
       <r>   -2.4239    0.0000 </r>
       <r>   -2.4232    0.0000 </r>
       <r>   -2.2470    0.0000 </r>
       <r>   -1.9984    0.0000 </r>
       <r>   -1.9977    0.0000 </r>
       <r>   -1.7618    0.0000 </r>
       <r>   -0.9289    0.0000 </r>
       <r>   -0.9283    0.0000 </r>
       <r>   -0.9039    0.0000 </r>
       <r>   -0.7628    0.0000 </r>
       <r>   -0.7617    0.0000 </r>
       <r>   -0.7594    0.0000 </r>
       <r>   -0.5150    0.0000 </r>
       <r>   -0.5143    0.0000 </r>
       <r>   -0.4633    0.0000 </r>
       <r>   -0.3824    0.0000 </r>
       <r>   -0.3812    0.0000 </r>
       <r>   -0.2294    0.0000 </r>
       <r>   -0.2239    0.0000 </r>
       <r>   -0.2228    0.0000 </r>
       <r>   -0.1821    0.0000 </r>
       <r>   -0.1809    0.0000 </r>
       <r>   -0.0179    0.0000 </r>
       <r>    0.0227    0.0000 </r>
       <r>    0.1408    0.0000 </r>
       <r>    0.1918    0.0000 </r>
       <r>    0.1921    0.0000 </r>
       <r>    0.2740    0.0000 </r>
       <r>    0.2752    0.0000 </r>
       <r>    0.3190    0.0000 </r>
       <r>    0.3825    0.0000 </r>
       <r>    0.3835    0.0000 </r>
       <r>    0.4063    0.0000 </r>
       <r>    0.4240    0.0000 </r>
       <r>    0.4357    0.0000 </r>
       <r>    0.4364    0.0000 </r>
       <r>    0.5610    0.0000 </r>
       <r>    0.5680    0.0000 </r>
       <r>    0.5701    0.0000 </r>
       <r>    0.5963    0.0000 </r>
       <r>    0.6191    0.0000 </r>
       <r>    0.6195    0.0000 </r>
       <r>    0.6767    0.0000 </r>
       <r>    0.6804    0.0000 </r>
       <r>    0.7016    0.0000 </r>
       <r>    0.7316    0.0000 </r>
       <r>    0.7333    0.0000 </r>
       <r>    0.7433    0.0000 </r>
       <r>    0.7772    0.0000 </r>
       <r>    0.8153    0.0000 </r>
       <r>    0.8190    0.0000 </r>
       <r>    0.8231    0.0000 </r>
       <r>    0.8500    0.0000 </r>
       <r>    0.8601    0.0000 </r>
       <r>    0.8636    0.0000 </r>
       <r>    0.8837    0.0000 </r>
       <r>    0.9144    0.0000 </r>
       <r>    0.9330    0.0000 </r>
       <r>    0.9340    0.0000 </r>
       <r>    0.9663    0.0000 </r>
       <r>    0.9708    0.0000 </r>
       <r>    1.0592    0.0000 </r>
       <r>    1.0956    0.0000 </r>
       <r>    1.0998    0.0000 </r>
       <r>    1.1046    0.0000 </r>
      </set>
      <set comment="kpoint 3">
       <r>  -23.1319    1.0000 </r>
       <r>  -23.1011    1.0000 </r>
       <r>  -23.0234    1.0000 </r>
       <r>  -23.0229    1.0000 </r>
       <r>  -22.9886    1.0000 </r>
       <r>  -22.9025    1.0000 </r>
       <r>  -22.9020    1.0000 </r>
       <r>  -22.8443    1.0000 </r>
       <r>  -22.8436    1.0000 </r>
       <r>  -22.7937    1.0000 </r>
       <r>  -22.7750    1.0000 </r>
       <r>  -22.7745    1.0000 </r>
       <r>  -20.9055    1.0000 </r>
       <r>  -20.8221    1.0000 </r>
       <r>  -20.8177    1.0000 </r>
       <r>  -20.7968    1.0000 </r>
       <r>  -20.6314    1.0000 </r>
       <r>  -20.6295    1.0000 </r>
       <r>  -20.2597    1.0000 </r>
       <r>  -20.0784    1.0000 </r>
       <r>  -19.3675    1.0000 </r>
       <r>  -19.3666    1.0000 </r>
       <r>  -19.1018    1.0000 </r>
       <r>  -18.5095    1.0000 </r>
       <r>  -18.5070    1.0000 </r>
       <r>  -18.0985    1.0000 </r>
       <r>  -17.9791    1.0000 </r>
       <r>  -17.9771    1.0000 </r>
       <r>  -17.9117    1.0000 </r>
       <r>  -17.9112    1.0000 </r>
       <r>  -17.8289    1.0000 </r>
       <r>  -17.7514    1.0000 </r>
       <r>  -17.7478    1.0000 </r>
       <r>  -17.6499    1.0000 </r>
       <r>  -17.2840    1.0000 </r>
       <r>  -17.2814    1.0000 </r>
       <r>  -16.2883    1.0000 </r>
       <r>  -16.1795    1.0000 </r>
       <r>  -16.1783    1.0000 </r>
       <r>  -15.4862    1.0000 </r>
       <r>  -15.4855    1.0000 </r>
       <r>  -15.3045    1.0000 </r>
       <r>  -15.0827    1.0000 </r>
       <r>  -15.0815    1.0000 </r>
       <r>  -15.0681    1.0000 </r>
       <r>  -14.7986    1.0000 </r>
       <r>  -14.7964    1.0000 </r>
[...]
       <r>   -20.1667    16.8422    38.0006 </r>
       <r>   -20.0778    20.6874    39.8395 </r>
       <r>   -19.9890     0.0000    40.0000 </r>
       <r>   -19.9001     0.0000    40.0000 </r>
       <r>   -19.8112     0.0000    40.0000 </r>
       <r>   -19.7223     0.0000    40.0000 </r>
       <r>   -19.6335     0.0000    40.0000 </r>
       <r>   -19.5446     0.0000    40.0000 </r>
       <r>   -19.4557     0.0000    40.0000 </r>
       <r>   -19.3668    13.9387    41.2388 </r>
       <r>   -19.2779    12.1466    43.4506 </r>
       <r>   -19.1891    15.0564    44.9774 </r>
       <r>   -19.1002     9.1284    45.8805 </r>
       <r>   -19.0113     0.0000    46.0000 </r>
       <r>   -18.9224     0.0000    46.0000 </r>
       <r>   -18.8336     0.0000    46.0000 </r>
       <r>   -18.7447     0.0000    46.0000 </r>
       <r>   -18.6558     0.0000    46.0000 </r>
       <r>   -18.5669     0.0000    46.0000 </r>
       <r>   -18.4781    27.9845    48.4871 </r>
       <r>   -18.3892     5.9354    49.0952 </r>
       <r>   -18.3003     9.6301    50.1633 </r>
       <r>   -18.2114     9.8913    51.1494 </r>
       <r>   -18.1226     4.8321    51.6302 </r>
       <r>   -18.0337     3.3535    52.0000 </r>
       <r>   -17.9448    32.3521    54.8753 </r>
       <r>   -17.8559    54.2225    60.0000 </r>
       <r>   -17.7671    40.4667    63.5965 </r>
       <r>   -17.6782    25.3725    66.0001 </r>
       <r>   -17.5893     6.3884    66.5678 </r>
       <r>   -17.5004     5.3663    67.1107 </r>
       <r>   -17.4116     9.4971    68.1836 </r>
       <r>   -17.3227    11.3646    69.3470 </r>
       <r>   -17.2338    28.8572    72.0000 </r>
       <r>   -17.1449     0.0000    72.0000 </r>
       <r>   -17.0561     0.0000    72.0000 </r>
       <r>   -16.9672     0.0000    72.0000 </r>
       <r>   -16.8783     0.0000    72.0000 </r>
       <r>   -16.7894     0.0000    72.0000 </r>
       <r>   -16.7005     0.0000    72.0000 </r>
       <r>   -16.6117     0.0000    72.0000 </r>
       <r>   -16.5228     0.0000    72.0000 </r>
       <r>   -16.4339     0.0000    72.0000 </r>
       <r>   -16.3450     0.0000    72.0000 </r>
       <r>   -16.2562    10.9555    72.9737 </r>
       <r>   -16.1673    50.8068    77.8690 </r>
       <r>   -16.0784     0.0000    78.0000 </r>
       <r>   -15.9895     0.0000    78.0000 </r>
       <r>   -15.9007     0.0000    78.0000 </r>
       <r>   -15.8118     0.0000    78.0000 </r>
       <r>   -15.7229     0.0000    78.0000 </r>
       <r>   -15.6340     0.0000    78.0000 </r>
       <r>   -15.5452     0.0000    78.0000 </r>
       <r>   -15.4563    31.9037    80.8355 </r>
       <r>   -15.3674    22.8042    83.0019 </r>
       <r>   -15.2785     9.7241    84.0000 </r>
       <r>   -15.1897     0.0000    84.0000 </r>
       <r>   -15.1008     0.3624    84.0322 </r>
       <r>   -15.0119    67.1475    90.0000 </r>
       <r>   -14.9230     0.0000    90.0000 </r>
       <r>   -14.8342     0.0000    90.0000 </r>
       <r>   -14.7453    30.4307    92.7046 </r>
       <r>   -14.6564    27.1854    95.1871 </r>
       <r>   -14.5675    20.6169    97.8323 </r>
       <r>   -14.4787    18.0206   100.2438 </r>
       <r>   -14.3898    10.4172   101.2660 </r>
       <r>   -14.3009     5.0012   101.7478 </r>
       <r>   -14.2120    24.8213   104.0105 </r>
       <r>   -14.1231     7.4952   104.6766 </r>
       <r>   -14.0343    17.7602   106.3152 </r>
       <r>   -13.9454    15.8845   108.0000 </r>
       <r>   -13.8565     0.0000   108.0000 </r>
       <r>   -13.7676     0.0000   108.0000 </r>
       <r>   -13.6788     0.0000   108.0000 </r>
       <r>   -13.5899     0.0000   108.0000 </r>
       <r>   -13.5010     0.0000   108.0000 </r>
       <r>   -13.4121     0.0000   108.0000 </r>
       <r>   -13.3233     0.9817   108.0873 </r>
       <r>   -13.2344    89.0315   116.0000 </r>
       <r>   -13.1455     0.0000   116.0000 </r>
       <r>   -13.0566     0.0000   116.0000 </r>
       <r>   -12.9678     0.0000   116.0000 </r>
       <r>   -12.8789    23.2882   118.0698 </r>
       <r>   -12.7900    21.6719   120.0000 </r>
       <r>   -12.7011     0.0000   120.0000 </r>
       <r>   -12.6123    67.2792   125.9795 </r>
       <r>   -12.5234    44.8797   129.9887 </r>
       <r>   -12.4345    15.5016   131.3859 </r>
       <r>   -12.3456    12.6437   132.5605 </r>
       <r>   -12.2568     6.3617   134.6339 </r>
       <r>   -12.1679    27.6611   137.1945 </r>
       <r>   -12.0790     0.0000   138.0000 </r>
       <r>   -11.9901     1.2410   138.1103 </r>
       <r>   -11.9013    21.2623   140.0000 </r>
       <r>   -11.8124    16.5168   141.4679 </r>
       <r>   -11.7235    26.8404   144.0000 </r>
       <r>   -11.6346     0.0000   144.0000 </r>
       <r>   -11.5457    16.5702   145.4727 </r>
       <r>   -11.4569    45.0056   149.9999 </r>
       <r>   -11.3680     1.4521   150.1291 </r>
       <r>   -11.2791    43.7717   154.0193 </r>
       <r>   -11.1902    89.9968   162.0178 </r>
       <r>   -11.1014    44.7991   166.0000 </r>
       <r>   -11.0125     0.0000   166.0000 </r>
       <r>   -10.9236     0.0000   166.0000 </r>
       <r>   -10.8347    21.6253   167.9220 </r>
       <r>   -10.7459    43.6792   171.8820 </r>
       <r>   -10.6570     0.0000   172.0000 </r>
       <r>   -10.5681     0.0000   172.0000 </r>
       <r>   -10.4792     0.0000   172.0000 </r>
       <r>   -10.3904     4.3914   172.3903 </r>
       <r>   -10.3015    55.1710   177.9808 </r>
       <r>   -10.2126    67.5098   184.0000 </r>
       <r>   -10.1237    85.6628   191.6134 </r>
       <r>   -10.0349    44.8542   196.0000 </r>
       <r>    -9.9460     0.0001   196.0000 </r>
       <r>    -9.8571    66.6206   201.9210 </r>
       <r>    -9.7682     0.0000   202.0000 </r>
       <r>    -9.6794     0.0000   202.0000 </r>
       <r>    -9.5905     0.0000   202.0000 </r>
       <r>    -9.5016     6.1775   202.5490 </r>
       <r>    -9.4127    59.4828   207.9594 </r>
       <r>    -9.3239    67.6137   214.0092 </r>
       <r>    -9.2350    22.3882   216.0000 </r>
       <r>    -9.1461    14.5146   217.2900 </r>
       <r>    -9.0572    29.5901   220.0000 </r>
       <r>    -8.9683     0.0000   220.0000 </r>
       <r>    -8.8795     4.6579   220.4140 </r>
       <r>    -8.7906    16.3500   221.9553 </r>
       <r>    -8.7017    45.0302   226.0021 </r>
       <r>    -8.6128    54.1259   230.8126 </r>
       <r>    -8.5240     8.9160   232.0000 </r>
       <r>    -8.4351    19.1010   233.6976 </r>
       <r>    -8.3462     8.8475   236.1681 </r>
       <r>    -8.2573    76.3502   243.3803 </r>
       <r>    -8.1685    32.4500   246.3891 </r>
       <r>    -8.0796    16.8163   248.0000 </r>
       <r>    -7.9907    45.0066   252.0000 </r>
       <r>    -7.9018    25.0008   254.2220 </r>
       <r>    -7.8130    57.9722   261.1959 </r>
       <r>    -7.7241     7.0270   262.0000 </r>
       <r>    -7.6352     0.0000   262.0000 </r>
       <r>    -7.5463     0.0000   262.0000 </r>
       <r>    -7.4575     0.0073   262.0006 </r>
       <r>    -7.3686    44.9992   266.0000 </r>
       <r>    -7.2797    15.3716   267.3662 </r>
       <r>    -7.1908    28.4551   270.0302 </r>
       <r>    -7.1020     8.4036   270.8854 </r>
       <r>    -7.0131    11.5625   272.0000 </r>
       <r>    -6.9242    14.5376   273.2920 </r>
       <r>    -6.8353     7.1060   274.0000 </r>
       <r>    -6.7465     1.7103   274.1520 </r>
       <r>    -6.6576    31.9742   276.9937 </r>
       <r>    -6.5687     8.3530   278.0000 </r>
       <r>    -6.4798    44.8324   281.9845 </r>
       <r>    -6.3909     0.0000   282.0000 </r>
       <r>    -6.3021     0.0000   282.0000 </r>
       <r>    -6.2132     0.0000   282.0000 </r>
       <r>    -6.1243     0.0000   282.0000 </r>
       <r>    -6.0354    18.9572   283.6848 </r>
       <r>    -5.9466    41.4228   287.4850 </r>
       <r>    -5.8577     0.0000   288.0000 </r>
       <r>    -5.7688     0.0001   288.0000 </r>
       <r>    -5.6799    66.0938   293.8742 </r>
       <r>    -5.5911    22.4989   295.9996 </r>
       <r>    -5.5022    22.5030   298.0000 </r>
       <r>    -5.4133     0.0000   298.0000 </r>
       <r>    -5.3244     0.0000   298.0000 </r>
       <r>    -5.2356     0.0000   298.0000 </r>
       <r>    -5.1467     0.0000   298.0000 </r>
       <r>    -5.0578     0.3650   298.0324 </r>
       <r>    -4.9689    44.6416   302.0000 </r>
       <r>    -4.8801    67.5099   308.0000 </r>
       <r>    -4.7912     5.4814   308.4872 </r>
       <r>    -4.7023    20.9815   312.0000 </r>
       <r>    -4.6134    22.4538   313.9956 </r>
       <r>    -4.5246    44.9944   318.0000 </r>
       <r>    -4.4357     0.0000   318.0000 </r>
       <r>    -4.3468     0.0000   318.0000 </r>
       <r>    -4.2579     0.0000   318.0000 </r>
       <r>    -4.1691     0.0000   318.0000 </r>
       <r>    -4.0802     0.0000   318.0000 </r>
       <r>    -3.9913     0.0000   318.0000 </r>
       <r>    -3.9024     0.0000   318.0000 </r>
       <r>    -3.8135     0.0000   318.0000 </r>
       <r>    -3.7247     0.0000   318.0000 </r>
       <r>    -3.6358     0.0000   318.0000 </r>
       <r>    -3.5469     0.0000   318.0000 </r>
       <r>    -3.4580     0.0000   318.0000 </r>
       <r>    -3.3692     0.0000   318.0000 </r>
       <r>    -3.2803     0.0000   318.0000 </r>
       <r>    -3.1914     0.0000   318.0000 </r>
       <r>    -3.1025     0.0000   318.0000 </r>
       <r>    -3.0137     0.0000   318.0000 </r>
       <r>    -2.9248     0.0000   318.0000 </r>
       <r>    -2.8359     0.0000   318.0000 </r>
       <r>    -2.7470     0.0000   318.0000 </r>
       <r>    -2.6582     0.0000   318.0000 </r>
       <r>    -2.5693     0.0000   318.0000 </r>
       <r>    -2.4804     0.0000   318.0000 </r>
       <r>    -2.3915    39.7253   321.5306 </r>
       <r>    -2.3027    10.3018   322.9156 </r>
       <r>    -2.2138     9.6812   324.0000 </r>
       <r>    -2.1249     0.0000   324.0000 </r>
       <r>    -2.0360     0.0000   324.0000 </r>
       <r>    -1.9472    30.5285   326.7132 </r>
       <r>    -1.8583    14.1082   328.0554 </r>
       <r>    -1.7694    16.5240   329.6758 </r>
       <r>    -1.6805     0.0000   330.0000 </r>
       <r>    -1.5917     0.0000   330.0000 </r>
       <r>    -1.5028     0.0000   330.0000 </r>
       <r>    -1.4139     0.0000   330.0000 </r>
       <r>    -1.3250     0.0000   330.0000 </r>
       <r>    -1.2362     0.0000   330.0000 </r>
       <r>    -1.1473     0.0000   330.0000 </r>
       <r>    -1.0584     0.0000   330.0000 </r>
       <r>    -0.9695     0.0000   330.0000 </r>
       <r>    -0.8806    67.5044   335.9995 </r>
       <r>    -0.7918     0.0014   336.0001 </r>
       <r>    -0.7029    67.5085   342.0000 </r>
       <r>    -0.6140     0.0000   342.0000 </r>
       <r>    -0.5251     2.0429   342.1816 </r>
       <r>    -0.4363    65.4650   347.9998 </r>
       <r>    -0.3474    45.0174   352.0010 </r>
       <r>    -0.2585    16.5048   353.4679 </r>
       <r>    -0.1696    93.2676   361.8582 </r>
       <r>    -0.0808     0.0000   362.0000 </r>
       <r>     0.0081     6.4219   362.5707 </r>
       <r>     0.0970    41.7717   366.4595 </r>
       <r>     0.1859    23.8678   369.3612 </r>
       <r>     0.2747    47.7560   374.4769 </r>
       <r>     0.3636    39.6780   379.5266 </r>
       <r>     0.4525    76.3742   386.9530 </r>
       <r>     0.5414    48.4775   391.6281 </r>
       <r>     0.6302    99.3189   400.6072 </r>
       <r>     0.7191    78.9378   408.3620 </r>
       <r>     0.8080    98.1534   417.6611 </r>
       <r>     0.8969    96.8066   427.9826 </r>
       <r>     0.9857   111.4332   438.5236 </r>
       <r>     1.0746    71.1844   446.2473 </r>
       <r>     1.1635    12.6360   448.0000 </r>
       <r>     1.2524     0.0000   448.0000 </r>
       <r>     1.3412     0.0000   448.0000 </r>
       <r>     1.4301     0.0000   448.0000 </r>
       <r>     1.5190     0.0000   448.0000 </r>
       <r>     1.6079     0.0000   448.0000 </r>
       <r>     1.6968     0.0000   448.0000 </r>
       <r>     1.7856     0.0000   448.0000 </r>
       <r>     1.8745     0.0000   448.0000 </r>
       <r>     1.9634     0.0000   448.0000 </r>
       <r>     2.0523     0.0000   448.0000 </r>
       <r>     2.1411     0.0000   448.0000 </r>
       <r>     2.2300     0.0000   448.0000 </r>
       <r>     2.3189     0.0000   448.0000 </r>
      </set>
     </set>
    </array>
   </total>
  </dos>
 </calculation>
 <structure name="finalpos" >
  <crystal>
   <varray name="basis" >
    <v>      29.71288216       0.01239640       0.00000000 </v>
    <v>     -14.84571634      25.73271224       0.00000000 </v>
    <v>       0.00000000       0.00000000      20.00000000 </v>
   </varray>
   <i name="volume">  15295.54160085 </i>
   <varray name="rec_basis" >
    <v>       0.03364734       0.01941182       0.00000000 </v>
    <v>      -0.00001621       0.03885169       0.00000000 </v>
    <v>       0.00000000       0.00000000       0.05000000 </v>
   </varray>
  </crystal>
  <varray name="positions" >
   <v>       0.59994667       0.02403768       0.44817994 </v>
   <v>       0.62155348       0.39708504       0.51178589 </v>
   <v>       0.60480949       0.22577002       0.51126647 </v>
   <v>       0.77612597       0.38022698       0.51189162 </v>
   <v>       0.37178942       0.59831787       0.48457590 </v>
   <v>       0.40340387       0.77506551       0.48411586 </v>
   <v>       0.22679413       0.63002602       0.48427433 </v>
   <v>       0.48710671       0.51064985       0.63490463 </v>
   <v>       0.02406022       0.51467720       0.63482654 </v>
   <v>       0.49072736       0.97769295       0.63488272 </v>
   <v>       0.42435881       0.40120957       0.44863041 </v>
   <v>       0.97736793       0.57724624       0.44819949 </v>
   <v>       0.52071180       0.01478675       0.63276709 </v>
   <v>       0.71151712       0.28176575       0.51223103 </v>
   <v>       0.72003648       0.43090140       0.51280081 </v>
   <v>       0.57098560       0.29041901       0.51219212 </v>
   <v>       0.29958552       0.72906308       0.48552392 </v>
   <v>       0.27284621       0.57220244       0.48620755 </v>
   <v>       0.42963804       0.70219595       0.48597571 </v>
   <v>       0.56947563       0.52899130       0.55417241 </v>
   <v>       0.61602473       0.47886922       0.54278708 </v>
   <v>       0.44233068       0.56815533       0.62912561 </v>
   <v>       0.47149778       0.51335127       0.67870048 </v>
   <v>       0.49423481       0.48065350       0.63266221 </v>
   <v>       0.40988166       0.61992284       0.57650921 </v>
   <v>       0.95992497       0.43231770       0.55463066 </v>
   <v>       0.86332798       0.38590051       0.54333048 </v>
   <v>       0.12627648       0.55958171       0.62895466 </v>
   <v>       0.04238742       0.53033934       0.67858853 </v>
   <v>       0.98694542       0.50752423       0.63262919 </v>
   <v>       0.21041873       0.59206580       0.57629476 </v>
   <v>       0.47283447       0.04226905       0.55432780 </v>
   <v>       0.52324102       0.13887778       0.54271390 </v>
   <v>       0.43330972       0.87552719       0.62883839 </v>
   <v>       0.48803856       0.95930320       0.67860495 </v>
   <v>       0.38165907       0.79143951       0.57603077 </v>
   <v>       0.45771752       0.50102319       0.40843612 </v>
   <v>       0.41418524       0.55419286       0.41693116 </v>
   <v>       0.48229776       0.35702554       0.44266148 </v>
   <v>       0.40260442       0.41649338       0.46538688 </v>
   <v>       0.40430028       0.36221049       0.44191010 </v>
   <v>       0.55614843       0.34777034       0.45470124 </v>
   <v>       0.04359971       0.54374056       0.40830696 </v>
   <v>       0.14024111       0.58731793       0.41667096 </v>
   <v>       0.87526257       0.51947529       0.44248015 </v>
   <v>       0.01437672       0.59898912       0.46494778 </v>
   <v>       0.95847616       0.59737134       0.44140916 </v>
   <v>       0.79213407       0.44572908       0.45501048 </v>
   <v>       0.50043977       0.95828548       0.40832529 </v>
   <v>       0.44744496       0.86162416       0.41660907 </v>
   <v>       0.64459390       0.12618250       0.44233679 </v>
   <v>       0.58459315       0.98704006       0.46506589 </v>
   <v>       0.63892687       0.04276997       0.44133271 </v>
   <v>       0.65431881       0.20952880       0.45472656 </v>
   <v>       0.64314571       0.36466202       0.50779852 </v>
   <v>       0.61318810       0.31015272       0.50817691 </v>
   <v>       0.63726547       0.27974393       0.50750299 </v>
   <v>       0.69177353       0.30425213       0.50822371 </v>
   <v>       0.72214929       0.35870986       0.50786835 </v>
   <v>       0.69759864       0.38870990       0.50853459 </v>
   <v>       0.35335148       0.63335295       0.48932346 </v>
   <v>       0.38788484       0.68706354       0.48895939 </v>
   <v>       0.36845863       0.72160824       0.48900294 </v>
   <v>       0.31475017       0.70245471       0.48871944 </v>
   <v>       0.28023976       0.64852064       0.48912550 </v>
   <v>       0.29942583       0.61396493       0.48910130 </v>
   <v>       0.42534499       0.56415305       0.52375159 </v>
   <v>       0.44526071       0.55279622       0.58061674 </v>
   <v>       0.46827594       0.52140773       0.57718839 </v>
   <v>       0.47312030       0.50261453       0.51370323 </v>
   <v>       0.49926644       0.47146813       0.50642969 </v>
   <v>       0.55028337       0.49081151       0.53040626 </v>
   <v>       0.57658279       0.46342585       0.52411518 </v>
   <v>       0.40137577       0.59673843       0.53007801 </v>
   <v>       0.13916022       0.57639300       0.52352996 </v>
   <v>       0.10795614       0.55653978       0.58044368 </v>
   <v>       0.05357786       0.53346108       0.57707398 </v>
   <v>       0.02989730       0.52852351       0.51361491 </v>
   <v>       0.97264781       0.50242944       0.50643949 </v>
   <v>       0.94097704       0.45150665       0.53069771 </v>
   <v>       0.88732907       0.42528163       0.52447534 </v>
   <v>       0.19568708       0.60046377       0.52981986 </v>
   <v>       0.43739565       0.86268748       0.52342528 </v>
   <v>       0.44868646       0.89386417       0.58036239 </v>
   <v>       0.48004623       0.94824062       0.57707322 </v>
   <v>       0.49884544       0.97194256       0.51363714 </v>
   <v>       0.53008989       0.02918979       0.50640277 </v>
   <v>       0.51096841       0.06105609       0.53046246 </v>
   <v>       0.53850008       0.11469752       0.52403988 </v>
   <v>       0.40488434       0.80616724       0.52964854 </v>
   <v>       0.45320489       0.51497749       0.45706701 </v>
   <v>       0.42921571       0.54472698       0.46117051 </v>
   <v>       0.55183834       0.41464753       0.49221106 </v>
   <v>       0.50134665       0.39489030       0.46751611 </v>
   <v>       0.47416922       0.42211102       0.47444995 </v>
   <v>       0.57730157       0.38366006       0.48488615 </v>
   <v>       0.06210295       0.54834332       0.45692174 </v>
   <v>       0.11581006       0.57237107       0.46095467 </v>
   <v>       0.86332062       0.45000546       0.49239138 </v>
   <v>       0.89405248       0.50043130       0.46746663 </v>
   <v>       0.94842411       0.52752338       0.47428880 </v>
   <v>       0.80690613       0.42454374       0.48510039 </v>
   <v>       0.48649696       0.93975510       0.45691641 </v>
   <v>       0.45682567       0.88604619       0.46089123 </v>
   <v>       0.58722006       0.13849123       0.49200860 </v>
   <v>       0.60677405       0.10756138       0.46727543 </v>
   <v>       0.57935764       0.05319812       0.47421986 </v>
   <v>       0.61831368       0.19489310       0.48464174 </v>
  </varray>
 </structure>
</modeling>
