<?xml version="1.0" encoding="ISO-8859-1"?>
<modeling>
 <generator>
  <i name="program" type="string">vasp </i>
  <i name="version" type="string">5.4.4.18Apr17-6-g9f103f2a35  </i>
  <i name="subversion" type="string">(build Jun 07 2020 16:50:00) complex            parallel </i>
  <i name="platform" type="string">LinuxIFC </i>
  <i name="date" type="string">2023 03 02 </i>
  <i name="time" type="string">06:14:55 </i>
 </generator>
 <incar>
  <i type="string" name="SYSTEM">Simulation for cell shape cell volume r</i>
  <i type="int" name="ISTART">     1</i>
  <i type="string" name="PREC">high</i>
  <i type="string" name="ALGO">48</i>
  <i type="int" name="ICHARG">    11</i>
  <i type="int" name="NELM">   200</i>
  <i type="int" name="IBRION">    -1</i>
  <i name="EDIFF">      0.00001000</i>
  <i name="EDIFFG">     -0.01000000</i>
  <i type="int" name="NSW">     0</i>
  <i type="int" name="ISIF">     2</i>
  <i name="ENCUT">    500.00000000</i>
  <i name="POTIM">      0.30000000</i>
  <i type="string" name="LREAL">A</i>
  <i type="int" name="ISMEAR">     0</i>
  <i name="SIGMA">      0.01000000</i>
  <i type="int" name="NWRITE">     0</i>
  <i type="logical" name="LWAVE"> F  </i>
  <i type="logical" name="LCHARG"> F  </i>
  <v type="int" name="KPOINT_BSE">    -1     0     0     0</v>
  <i type="int" name="NELM">   200</i>
  <i type="string" name="GGA">PE</i>
 </incar>
 <structure name="primitive_cell" >
  <crystal>
   <varray name="basis" >
    <v>      23.09146589      -0.00121927       0.00000000 </v>
    <v>     -11.54678883      20.00134124       0.00000000 </v>
    <v>       0.00000000       0.00000000      20.00000000 </v>
   </varray>
   <i name="volume">   9236.92420894 </i>
   <varray name="rec_basis" >
    <v>       0.04330736       0.02500137       0.00000000 </v>
    <v>       0.00000264       0.04999817       0.00000000 </v>
    <v>       0.00000000       0.00000000       0.05000000 </v>
   </varray>
  </crystal>
  <varray name="positions" >
   <v>      -0.47297667       0.25136670       0.45554896 </v>
   <v>      -0.47301577       0.30854722       0.45560203 </v>
   <v>      -0.49438137       0.21104637      -0.48998461 </v>
   <v>      -0.49433244       0.32744861      -0.48985453 </v>
   <v>      -0.46522282       0.16671772      -0.48474891 </v>
   <v>       0.46881046       0.22064328      -0.43980976 </v>
   <v>      -0.36950449       0.25275922       0.49295613 </v>
   <v>       0.46884815       0.28098287      -0.43973186 </v>
   <v>      -0.39589289       0.19991826      -0.49396410 </v>
   <v>      -0.36932019       0.41075413       0.49327161 </v>
   <v>       0.44542514       0.18441012      -0.39946955 </v>
   <v>      -0.46516187       0.40094193      -0.48454526 </v>
   <v>      -0.49913793       0.09821838      -0.47112748 </v>
   <v>       0.44549390       0.29375945      -0.39930902 </v>
   <v>      -0.39581479       0.43711663      -0.49365090 </v>
   <v>       0.44659727       0.07256366      -0.46670462 </v>
   <v>      -0.35973627       0.16673100      -0.48491564 </v>
   <v>      -0.46481428       0.06202063      -0.46746408 </v>
   <v>      -0.26738104       0.25154600       0.45535878 </v>
   <v>      -0.49915355       0.43547341      -0.47099392 </v>
   <v>      -0.39429906       0.09820996      -0.47133332 </v>
   <v>      -0.28625472       0.21112096      -0.49022289 </v>
   <v>       0.44657521       0.40681575      -0.46670664 </v>
   <v>      -0.35974486      -0.49354862      -0.48450121 </v>
   <v>      -0.21158547       0.41077211       0.49332771 </v>
   <v>      -0.21020875       0.30877544       0.45547460 </v>
   <v>      -0.26731085      -0.48569378       0.45569767 </v>
   <v>       0.39877655      -0.02300192      -0.46690628 </v>
   <v>      -0.28624116      -0.46435113      -0.48978408 </v>
   <v>      -0.36571091       0.07252505      -0.46711261 </v>
   <v>       0.49782568      -0.01261558      -0.46740401 </v>
   <v>      -0.46490821      -0.49402005      -0.46723072 </v>
   <v>      -0.21017630      -0.48585031       0.45574097 </v>
   <v>      -0.23981759       0.22066736      -0.44010771 </v>
   <v>      -0.39437990      -0.45965803      -0.47094637 </v>
   <v>       0.42730090      -0.04875111      -0.47112086 </v>
   <v>      -0.16988979       0.32755246      -0.49003489 </v>
   <v>      -0.15872651       0.43716859      -0.49362077 </v>
   <v>      -0.25264046       0.18443655      -0.39976945 </v>
   <v>      -0.17950037       0.28101555      -0.44001721 </v>
   <v>       0.39862348       0.45453838      -0.46687033 </v>
   <v>      -0.16986695      -0.46439911      -0.48976264 </v>
   <v>      -0.23982351      -0.42759010      -0.43960595 </v>
   <v>      -0.12553220       0.40102472      -0.48458523 </v>
   <v>      -0.46790078      -0.04886589      -0.47113937 </v>
   <v>      -0.36581077      -0.40538589      -0.46669290 </v>
   <v>       0.49767639      -0.45679779      -0.46727442 </v>
   <v>      -0.41361530      -0.02321908      -0.46692543 </v>
   <v>      -0.12550963      -0.49351364      -0.48445349 </v>
   <v>      -0.17946382      -0.42753918      -0.43964573 </v>
   <v>       0.42716007      -0.49119575      -0.47112601 </v>
   <v>      -0.25265795      -0.40427543      -0.39917729 </v>
   <v>       0.39266006      -0.11726977      -0.48460572 </v>
   <v>      -0.14335273       0.29377681      -0.39959737 </v>
   <v>       0.49807135      -0.11740676      -0.48460904 </v>
   <v>      -0.14329557      -0.40421151      -0.39923487 </v>
   <v>       0.28546832      -0.13505344      -0.39947768 </v>
   <v>       0.31918319      -0.16160043      -0.48994784 </v>
   <v>      -0.46808176      -0.38628393      -0.47097908 </v>
   <v>       0.42872361      -0.15055141      -0.49364483 </v>
   <v>      -0.05699447       0.43559388      -0.47102675 </v>
   <v>      -0.41380484      -0.35762832      -0.46669827 </v>
   <v>      -0.05698310      -0.45957629      -0.47087617 </v>
   <v>       0.27270021      -0.17122979      -0.43985719 </v>
   <v>       0.39252052      -0.45732650      -0.48475910 </v>
   <v>       0.30040151      -0.20192583       0.45558119 </v>
   <v>      -0.03131234       0.40699976      -0.46686021 </v>
   <v>      -0.02078420      -0.49390122      -0.46719897 </v>
   <v>       0.28558752       0.45368020      -0.39936143 </v>
   <v>      -0.03130376      -0.40531603      -0.46650253 </v>
   <v>       0.40224003      -0.20342012       0.49338212 </v>
   <v>       0.31903117      -0.48649733      -0.49010750 </v>
   <v>       0.49790184      -0.35177430      -0.48456692 </v>
   <v>      -0.47291469      -0.16185534      -0.48997701 </v>
   <v>       0.42857483      -0.38798960      -0.49378478 </v>
   <v>       0.27268776       0.47689417      -0.43983220 </v>
   <v>       0.21241545      -0.23159545      -0.43984238 </v>
   <v>      -0.41229835      -0.13510388      -0.39973822 </v>
   <v>       0.30007614      -0.46526673       0.45531268 </v>
   <v>       0.24325306      -0.25922870       0.45565586 </v>
   <v>      -0.49469583      -0.20233820       0.45565210 </v>
   <v>      -0.43587500      -0.17137932      -0.44000984 </v>
   <v>       0.17621151      -0.24439977      -0.39947269 </v>
   <v>       0.05385670      -0.45659563      -0.46721021 </v>
   <v>       0.40210970      -0.36161120       0.49311951 </v>
   <v>       0.20291959      -0.27807796      -0.48988753 </v>
   <v>      -0.47305504      -0.27830821      -0.48990676 </v>
   <v>       0.06434555       0.45480742      -0.46677972 </v>
   <v>       0.21241628       0.47700572      -0.43979981 </v>
   <v>       0.06446459      -0.35745822      -0.46660511 </v>
   <v>       0.24292167      -0.46510875       0.45535790 </v>
   <v>       0.09003166      -0.49092581      -0.47102818 </v>
   <v>      -0.41236572      -0.24445678      -0.39971234 </v>
   <v>       0.09010105      -0.38608701      -0.47091976 </v>
   <v>      -0.49479882      -0.25958482       0.45571529 </v>
   <v>       0.17632762       0.45387572      -0.39930602 </v>
   <v>      -0.43592920      -0.23172960      -0.43998315 </v>
   <v>       0.20277404      -0.48627999      -0.49002742 </v>
   <v>       0.15861834      -0.35155427      -0.48452125 </v>
   <v>       0.24465215      -0.36129261       0.49317374 </v>
   <v>       0.15854157      -0.45702762      -0.48463656 </v>
   <v>       0.19180278      -0.38769580      -0.49371762 </v>
  </varray>
 </structure>
 <varray name="primitive_index" >
  <v type="int" >        1 </v>
  <v type="int" >        2 </v>
  <v type="int" >       20 </v>
  <v type="int" >       17 </v>
  <v type="int" >       15 </v>
  <v type="int" >       19 </v>
  <v type="int" >       73 </v>
  <v type="int" >       18 </v>
  <v type="int" >       14 </v>
  <v type="int" >       81 </v>
  <v type="int" >       75 </v>
  <v type="int" >       48 </v>
  <v type="int" >       16 </v>
  <v type="int" >       76 </v>
  <v type="int" >       31 </v>
  <v type="int" >       74 </v>
  <v type="int" >       26 </v>
  <v type="int" >       13 </v>
  <v type="int" >        4 </v>
  <v type="int" >       47 </v>
  <v type="int" >       25 </v>
  <v type="int" >       21 </v>
  <v type="int" >       88 </v>
  <v type="int" >       32 </v>
  <v type="int" >       82 </v>
  <v type="int" >        3 </v>
  <v type="int" >        5 </v>
  <v type="int" >      102 </v>
  <v type="int" >       42 </v>
  <v type="int" >       79 </v>
  <v type="int" >       63 </v>
  <v type="int" >       30 </v>
  <v type="int" >        6 </v>
  <v type="int" >       22 </v>
  <v type="int" >       33 </v>
  <v type="int" >       72 </v>
  <v type="int" >       24 </v>
  <v type="int" >       36 </v>
  <v type="int" >       78 </v>
  <v type="int" >       23 </v>
  <v type="int" >       80 </v>
  <v type="int" >       39 </v>
  <v type="int" >       41 </v>
  <v type="int" >       37 </v>
  <v type="int" >       64 </v>
  <v type="int" >       91 </v>
  <v type="int" >       27 </v>
  <v type="int" >       98 </v>
  <v type="int" >       52 </v>
  <v type="int" >       40 </v>
  <v type="int" >       28 </v>
  <v type="int" >       84 </v>
  <v type="int" >       71 </v>
  <v type="int" >       77 </v>
  <v type="int" >       65 </v>
  <v type="int" >       85 </v>
  <v type="int" >      101 </v>
  <v type="int" >       69 </v>
  <v type="int" >       62 </v>
  <v type="int" >       66 </v>
  <v type="int" >       38 </v>
  <v type="int" >       96 </v>
  <v type="int" >       51 </v>
  <v type="int" >       70 </v>
  <v type="int" >       29 </v>
  <v type="int" >       12 </v>
  <v type="int" >       83 </v>
  <v type="int" >       35 </v>
  <v type="int" >       86 </v>
  <v type="int" >       97 </v>
  <v type="int" >       99 </v>
  <v type="int" >       46 </v>
  <v type="int" >       61 </v>
  <v type="int" >       68 </v>
  <v type="int" >       53 </v>
  <v type="int" >       45 </v>
  <v type="int" >       59 </v>
  <v type="int" >      100 </v>
  <v type="int" >        7 </v>
  <v type="int" >       10 </v>
  <v type="int" >       11 </v>
  <v type="int" >       67 </v>
  <v type="int" >       95 </v>
  <v type="int" >       34 </v>
  <v type="int" >       90 </v>
  <v type="int" >       60 </v>
  <v type="int" >       57 </v>
  <v type="int" >       89 </v>
  <v type="int" >       44 </v>
  <v type="int" >       92 </v>
  <v type="int" >        8 </v>
  <v type="int" >       50 </v>
  <v type="int" >       94 </v>
  <v type="int" >       54 </v>
  <v type="int" >        9 </v>
  <v type="int" >       87 </v>
  <v type="int" >       58 </v>
  <v type="int" >       43 </v>
  <v type="int" >       55 </v>
  <v type="int" >       93 </v>
  <v type="int" >       49 </v>
  <v type="int" >       56 </v>
 </varray>
 <kpoints>
  <generation param="listgenerated">
   <i name="divisions" type="int">      20 </i>
   <v>       0.00000000       0.00000000       0.00000000 </v>
   <v>       0.50000000       0.00000000       0.00000000 </v>
   <v>       0.33333333       0.33333333       0.00000000 </v>
   <v>       0.00000000       0.00000000       0.00000000 </v>
  </generation>
  <varray name="kpointlist" >
   <v>       0.00000000       0.00000000       0.00000000 </v>
   <v>       0.02631579       0.00000000       0.00000000 </v>
   <v>       0.05263158       0.00000000       0.00000000 </v>
   <v>       0.07894737       0.00000000       0.00000000 </v>
   <v>       0.10526316       0.00000000       0.00000000 </v>
   <v>       0.13157895       0.00000000       0.00000000 </v>
   <v>       0.15789474       0.00000000       0.00000000 </v>
   <v>       0.18421053       0.00000000       0.00000000 </v>
   <v>       0.21052632       0.00000000       0.00000000 </v>
   <v>       0.23684211       0.00000000       0.00000000 </v>
   <v>       0.26315789       0.00000000       0.00000000 </v>
   <v>       0.28947368       0.00000000       0.00000000 </v>
   <v>       0.31578947       0.00000000       0.00000000 </v>
   <v>       0.34210526       0.00000000       0.00000000 </v>
   <v>       0.36842105       0.00000000       0.00000000 </v>
   <v>       0.39473684       0.00000000       0.00000000 </v>
   <v>       0.42105263       0.00000000       0.00000000 </v>
   <v>       0.44736842       0.00000000       0.00000000 </v>
   <v>       0.47368421       0.00000000       0.00000000 </v>
   <v>       0.50000000       0.00000000       0.00000000 </v>
   <v>       0.50000000       0.00000000       0.00000000 </v>
   <v>       0.49122807       0.01754386       0.00000000 </v>
   <v>       0.48245614       0.03508772       0.00000000 </v>
   <v>       0.47368421       0.05263158       0.00000000 </v>
   <v>       0.46491228       0.07017544       0.00000000 </v>
   <v>       0.45614035       0.08771930       0.00000000 </v>
   <v>       0.44736842       0.10526316       0.00000000 </v>
   <v>       0.43859649       0.12280702       0.00000000 </v>
   <v>       0.42982456       0.14035088       0.00000000 </v>
   <v>       0.42105263       0.15789474       0.00000000 </v>
   <v>       0.41228070       0.17543860       0.00000000 </v>
   <v>       0.40350877       0.19298246       0.00000000 </v>
   <v>       0.39473684       0.21052632       0.00000000 </v>
   <v>       0.38596491       0.22807018       0.00000000 </v>
   <v>       0.37719298       0.24561404       0.00000000 </v>
   <v>       0.36842105       0.26315789       0.00000000 </v>
   <v>       0.35964912       0.28070175       0.00000000 </v>
   <v>       0.35087719       0.29824561       0.00000000 </v>
   <v>       0.34210526       0.31578947       0.00000000 </v>
   <v>       0.33333333       0.33333333       0.00000000 </v>
   <v>       0.33333333       0.33333333       0.00000000 </v>
   <v>       0.31578947       0.31578947       0.00000000 </v>
   <v>       0.29824561       0.29824561       0.00000000 </v>
   <v>       0.28070175       0.28070175       0.00000000 </v>
   <v>       0.26315789       0.26315789       0.00000000 </v>
   <v>       0.24561404       0.24561404       0.00000000 </v>
   <v>       0.22807018       0.22807018       0.00000000 </v>
   <v>       0.21052632       0.21052632       0.00000000 </v>
   <v>       0.19298246       0.19298246       0.00000000 </v>
   <v>       0.17543860       0.17543860       0.00000000 </v>
   <v>       0.15789474       0.15789474       0.00000000 </v>
   <v>       0.14035088       0.14035088       0.00000000 </v>
   <v>       0.12280702       0.12280702       0.00000000 </v>
   <v>       0.10526316       0.10526316       0.00000000 </v>
   <v>       0.08771930       0.08771930       0.00000000 </v>
   <v>       0.07017544       0.07017544       0.00000000 </v>
   <v>       0.05263158       0.05263158       0.00000000 </v>
   <v>       0.03508772       0.03508772       0.00000000 </v>
   <v>       0.01754386       0.01754386       0.00000000 </v>
   <v>       0.00000000       0.00000000       0.00000000 </v>
  </varray>
  <varray name="weights" >
   <v>       0.01666667 </v>
   <v>       0.01666667 </v>
   <v>       0.01666667 </v>
   <v>       0.01666667 </v>
   <v>       0.01666667 </v>
   <v>       0.01666667 </v>
   <v>       0.01666667 </v>
   <v>       0.01666667 </v>
   <v>       0.01666667 </v>
   <v>       0.01666667 </v>
   <v>       0.01666667 </v>
   <v>       0.01666667 </v>
   <v>       0.01666667 </v>
   <v>       0.01666667 </v>
   <v>       0.01666667 </v>
   <v>       0.01666667 </v>
   <v>       0.01666667 </v>
   <v>       0.01666667 </v>
   <v>       0.01666667 </v>
   <v>       0.01666667 </v>
   <v>       0.01666667 </v>
   <v>       0.01666667 </v>
   <v>       0.01666667 </v>
   <v>       0.01666667 </v>
   <v>       0.01666667 </v>
   <v>       0.01666667 </v>
   <v>       0.01666667 </v>
   <v>       0.01666667 </v>
   <v>       0.01666667 </v>
   <v>       0.01666667 </v>
   <v>       0.01666667 </v>
   <v>       0.01666667 </v>
   <v>       0.01666667 </v>
   <v>       0.01666667 </v>
   <v>       0.01666667 </v>
   <v>       0.01666667 </v>
   <v>       0.01666667 </v>
   <v>       0.01666667 </v>
   <v>       0.01666667 </v>
   <v>       0.01666667 </v>
   <v>       0.01666667 </v>
   <v>       0.01666667 </v>
   <v>       0.01666667 </v>
   <v>       0.01666667 </v>
   <v>       0.01666667 </v>
   <v>       0.01666667 </v>
   <v>       0.01666667 </v>
   <v>       0.01666667 </v>
   <v>       0.01666667 </v>
   <v>       0.01666667 </v>
   <v>       0.01666667 </v>
   <v>       0.01666667 </v>
   <v>       0.01666667 </v>
   <v>       0.01666667 </v>
   <v>       0.01666667 </v>
   <v>       0.01666667 </v>
   <v>       0.01666667 </v>
   <v>       0.01666667 </v>
   <v>       0.01666667 </v>
   <v>       0.01666667 </v>
  </varray>
 </kpoints>
 <parameters>
  <separator name="general" >
   <i type="string" name="SYSTEM">Simulation for cell shape cell volume r</i>
   <i type="logical" name="LCOMPAT"> F  </i>
  </separator>
  <separator name="electronic" >
   <i type="string" name="PREC">high</i>
   <i name="ENMAX">    500.00000000</i>
   <i name="ENAUG">    644.87300000</i>
   <i name="EDIFF">      0.00001000</i>
   <i type="int" name="IALGO">    38</i>
   <i type="int" name="IWAVPR">    10</i>
   <i type="int" name="NBANDS">   224</i>
   <i name="NELECT">    330.00000000</i>
   <i type="int" name="TURBO">     0</i>
   <i type="int" name="IRESTART">     0</i>
   <i type="int" name="NREBOOT">     0</i>
   <i type="int" name="NMIN">     0</i>
   <i name="EREF">      0.00000000</i>
   <separator name="electronic smearing" >
    <i type="int" name="ISMEAR">     0</i>
    <i name="SIGMA">      0.01000000</i>
    <i name="KSPACING">      0.50000000</i>
    <i type="logical" name="KGAMMA"> T  </i>
   </separator>
   <separator name="electronic projectors" >
    <i type="logical" name="LREAL"> T  </i>
    <v name="ROPT">     -0.00040000     -0.00040000     -0.00040000</v>
    <i type="int" name="LMAXPAW">  -100</i>
    <i type="int" name="LMAXMIX">     2</i>
    <i type="logical" name="NLSPLINE"> F  </i>
   </separator>
   <separator name="electronic startup" >
    <i type="int" name="ISTART">     1</i>
    <i type="int" name="ICHARG">    11</i>
    <i type="int" name="INIWAV">     1</i>
   </separator>
   <separator name="electronic spin" >
    <i type="int" name="ISPIN">     1</i>
    <i type="logical" name="LNONCOLLINEAR"> F  </i>
    <v name="MAGMOM">      1.00000000      1.00000000      1.00000000      1.00000000      1.00000000      1.00000000      1.00000000      1.00000000      1.00000000      1.00000000      1.00000000      1.00000000      1.00000000      1.00000000      1.00000000      1.00000000      1.00000000      1.00000000      1.00000000      1.00000000
      1.00000000      1.00000000      1.00000000      1.00000000      1.00000000      1.00000000      1.00000000      1.00000000      1.00000000      1.00000000      1.00000000      1.00000000      1.00000000      1.00000000      1.00000000      1.00000000      1.00000000      1.00000000      1.00000000      1.00000000
      1.00000000      1.00000000      1.00000000      1.00000000      1.00000000      1.00000000      1.00000000      1.00000000      1.00000000      1.00000000      1.00000000      1.00000000      1.00000000      1.00000000      1.00000000      1.00000000      1.00000000      1.00000000      1.00000000      1.00000000
      1.00000000      1.00000000      1.00000000      1.00000000      1.00000000      1.00000000      1.00000000      1.00000000      1.00000000      1.00000000      1.00000000      1.00000000      1.00000000      1.00000000      1.00000000      1.00000000      1.00000000      1.00000000      1.00000000      1.00000000
      1.00000000      1.00000000      1.00000000      1.00000000      1.00000000      1.00000000      1.00000000      1.00000000      1.00000000      1.00000000      1.00000000      1.00000000      1.00000000      1.00000000      1.00000000      1.00000000      1.00000000      1.00000000      1.00000000      1.00000000
      1.00000000      1.00000000</v>
    <i name="NUPDOWN">     -1.00000000</i>
    <i type="logical" name="LSORBIT"> F  </i>
    <v name="SAXIS">      0.00000000      0.00000000      1.00000000</v>
    <i type="logical" name="LSPIRAL"> F  </i>
    <v name="QSPIRAL">      0.00000000      0.00000000      0.00000000</v>
    <i type="logical" name="LZEROZ"> F  </i>
   </separator>
   <separator name="electronic exchange-correlation" >
    <i type="logical" name="LASPH"> F  </i>
    <i type="logical" name="LMETAGGA"> F  </i>
   </separator>
   <separator name="electronic convergence" >
    <i type="int" name="NELM">   200</i>
    <i type="int" name="NELMDL">     0</i>
    <i type="int" name="NELMIN">     2</i>
    <i name="ENINI">    500.00000000</i>
    <separator name="electronic convergence detail" >
     <i type="logical" name="LDIAG"> T  </i>
     <i type="logical" name="LSUBROT"> F  </i>
     <i name="WEIMIN">      0.00000000</i>
     <i name="EBREAK">      0.00000001</i>
     <i name="DEPER">      0.30000000</i>
     <i type="int" name="NRMM">     4</i>
     <i name="TIME">      0.40000000</i>
    </separator>
   </separator>
   <separator name="electronic mixer" >
    <i name="AMIX">      0.40000000</i>
    <i name="BMIX">      1.00000000</i>
    <i name="AMIN">      0.10000000</i>
    <i name="AMIX_MAG">      1.60000000</i>
    <i name="BMIX_MAG">      1.00000000</i>
    <separator name="electronic mixer details" >
     <i type="int" name="IMIX">     4</i>
     <i type="logical" name="MIXFIRST"> F  </i>
     <i type="int" name="MAXMIX">   -45</i>
     <i name="WC">    100.00000000</i>
     <i type="int" name="INIMIX">     1</i>
     <i type="int" name="MIXPRE">     1</i>
     <i type="int" name="MREMOVE">     5</i>
    </separator>
   </separator>
   <separator name="electronic dipolcorrection" >
    <i type="logical" name="LDIPOL"> F  </i>
    <i type="logical" name="LMONO"> F  </i>
    <i type="int" name="IDIPOL">     0</i>
    <i name="EPSILON">      1.00000000</i>
    <v name="DIPOL">   -100.00000000   -100.00000000   -100.00000000</v>
    <i name="EFIELD">      0.00000000</i>
   </separator>
  </separator>
  <separator name="grids" >
   <i type="int" name="NGX">   168</i>
   <i type="int" name="NGY">   168</i>
   <i type="int" name="NGZ">   150</i>
   <i type="int" name="NGXF">   256</i>
   <i type="int" name="NGYF">   256</i>
   <i type="int" name="NGZF">   224</i>
   <i type="logical" name="ADDGRID"> F  </i>
  </separator>
  <separator name="ionic" >
   <i type="int" name="NSW">     0</i>
   <i type="int" name="IBRION">    -1</i>
   <i type="int" name="MDALGO">     0</i>
   <i type="int" name="ISIF">     2</i>
   <i name="PSTRESS">      0.00000000</i>
   <i name="EDIFFG">     -0.01000000</i>
   <i type="int" name="NFREE">     0</i>
   <i name="POTIM">      0.30000000</i>
   <i name="SMASS">     -3.00000000</i>
   <i name="SCALEE">      1.00000000</i>
  </separator>
  <separator name="ionic md" >
   <i name="TEBEG">      0.00010000</i>
   <i name="TEEND">      0.00010000</i>
   <i type="int" name="NBLOCK">     1</i>
   <i type="int" name="KBLOCK">     1</i>
   <i type="int" name="NPACO">   256</i>
   <i name="APACO">     16.00000000</i>
  </separator>
  <separator name="symmetry" >
   <i type="int" name="ISYM">     2</i>
   <i name="SYMPREC">      0.00001000</i>
  </separator>
  <separator name="dos" >
   <i type="int" name="LORBIT">     0</i>
   <v name="RWIGS">     -1.00000000     -1.00000000     -1.00000000</v>
   <i type="int" name="NEDOS">   301</i>
   <i name="EMIN">     10.00000000</i>
   <i name="EMAX">    -10.00000000</i>
   <i name="EFERMI">      0.00000000</i>
  </separator>
  <separator name="writing" >
   <i type="int" name="NWRITE">     0</i>
   <i type="logical" name="LWAVE"> F  </i>
   <i type="logical" name="LDOWNSAMPLE"> F  </i>
   <i type="logical" name="LCHARG"> F  </i>
   <i type="logical" name="LPARD"> F  </i>
   <i type="logical" name="LVTOT"> F  </i>
   <i type="logical" name="LVHAR"> F  </i>
   <i type="logical" name="LELF"> F  </i>
   <i type="logical" name="LOPTICS"> F  </i>
   <v name="STM">      0.00000000      0.00000000      0.00000000      0.00000000      0.00000000      0.00000000      0.00000000</v>
  </separator>
  <separator name="performance" >
   <i type="int" name="NPAR">    16</i>
   <i type="int" name="NSIM">     4</i>
   <i type="int" name="NBLK">    -1</i>
   <i type="logical" name="LPLANE"> T  </i>
   <i type="logical" name="LSCALAPACK"> T  </i>
   <i type="logical" name="LSCAAWARE"> F  </i>
   <i type="logical" name="LSCALU"> F  </i>
   <i type="logical" name="LASYNC"> F  </i>
   <i type="logical" name="LORBITALREAL"> F  </i>
  </separator>
  <separator name="miscellaneous" >
   <i type="int" name="IDIOT">     3</i>
   <i type="int" name="ISPECIAL">     0</i>
   <i type="logical" name="LMUSIC"> F  </i>
   <v name="POMASS">     14.00100000     12.01100000      1.00000000</v>
   <v name="DARWINR">      0.00000000      0.00000000      0.00000000</v>
   <v name="DARWINV">      1.00000000      1.00000000      1.00000000</v>
   <i type="logical" name="LCORR"> T  </i>
  </separator>
  <i type="logical" name="GGA_COMPAT"> T  </i>
  <i type="logical" name="LBERRY"> F  </i>
  <i type="int" name="ICORELEVEL">     0</i>
  <i type="logical" name="LDAU"> F  </i>
  <i type="int" name="I_CONSTRAINED_M">     0</i>
  <separator name="electronic exchange-correlation" >
   <i type="string" name="GGA">PE</i>
   <i type="int" name="VOSKOWN">     0</i>
   <i type="logical" name="LHFCALC"> F  </i>
   <i type="string" name="PRECFOCK"></i>
   <i type="logical" name="LSYMGRAD"> F  </i>
   <i type="logical" name="LHFONE"> F  </i>
   <i type="logical" name="LRHFCALC"> F  </i>
   <i type="logical" name="LTHOMAS"> F  </i>
   <i type="logical" name="LMODELHF"> F  </i>
   <i name="ENCUT4O">     -1.00000000</i>
   <i type="int" name="EXXOEP">     0</i>
   <i type="int" name="FOURORBIT">     0</i>
   <i name="AEXX">      0.00000000</i>
   <i name="HFALPHA">      0.00000000</i>
   <i name="MCALPHA">      0.00000000</i>
   <i name="ALDAX">      1.00000000</i>
   <i name="AGGAX">      1.00000000</i>
   <i name="ALDAC">      1.00000000</i>
   <i name="AGGAC">      1.00000000</i>
   <i type="int" name="NKREDX">     1</i>
   <i type="int" name="NKREDY">     1</i>
   <i type="int" name="NKREDZ">     1</i>
   <i type="logical" name="SHIFTRED"> F  </i>
   <i type="logical" name="ODDONLY"> F  </i>
   <i type="logical" name="EVENONLY"> F  </i>
   <i type="int" name="LMAXFOCK">     0</i>
   <i type="int" name="NMAXFOCKAE">     0</i>
   <i type="logical" name="LFOCKAEDFT"> F  </i>
   <i name="HFSCREEN">      0.00000000</i>
   <i name="HFSCREENC">      0.00000000</i>
   <i type="int" name="NBANDSGWLOW">     0</i>
  </separator>
  <separator name="vdW DFT" >
   <i type="logical" name="LUSE_VDW"> F  </i>
   <i name="Zab_VDW">     -0.84910000</i>
   <i name="PARAM1">      0.12340000</i>
   <i name="PARAM2">      1.00000000</i>
   <i name="PARAM3">      0.00000000</i>
  </separator>
  <separator name="model GW" >
   <i type="int" name="MODEL_GW">     0</i>
   <i name="MODEL_EPS0">     54.33484829</i>
   <i name="MODEL_ALPHA">      1.00000000</i>
  </separator>
  <separator name="linear response parameters" >
   <i type="logical" name="LEPSILON"> F  </i>
   <i type="logical" name="LRPA"> F  </i>
   <i type="logical" name="LNABLA"> F  </i>
   <i type="logical" name="LVEL"> F  </i>
   <i type="int" name="KINTER">     0</i>
   <i name="CSHIFT">      0.10000000</i>
   <i name="OMEGAMAX">     -1.00000000</i>
   <i name="DEG_THRESHOLD">      0.00200000</i>
   <i name="RTIME">     -0.10000000</i>
   <i name="WPLASMAI">      0.00000000</i>
   <v name="DFIELD">      0.00000000      0.00000000      0.00000000</v>
   <v name="WPLASMA">      0.00000000      0.00000000      0.00000000      0.00000000      0.00000000      0.00000000      0.00000000      0.00000000      0.00000000</v>
  </separator>
  <separator name="orbital magnetization" >
   <i type="logical" name="NUCIND"> F  </i>
   <v name="MAGPOS">      0.00000000      0.00000000      0.00000000</v>
   <i type="logical" name="LNICSALL"> T  </i>
   <i type="logical" name="ORBITALMAG"> F  </i>
   <i type="logical" name="LMAGBLOCH"> F  </i>
   <i type="logical" name="LCHIMAG"> F  </i>
   <i type="logical" name="LGAUGE"> T  </i>
   <i type="int" name="MAGATOM">     0</i>
   <v name="MAGDIPOL">      0.00000000      0.00000000      0.00000000</v>
   <v name="AVECCONST">      0.00000000      0.00000000      0.00000000</v>
  </separator>
  <separator name="response functions" >
   <i type="logical" name="LADDER"> F  </i>
   <i type="logical" name="LRPAFORCE"> F  </i>
   <i type="logical" name="LFXC"> F  </i>
   <i type="logical" name="LHARTREE"> T  </i>
   <i type="int" name="IBSE">     0</i>
   <v type="int" name="KPOINT">    -1     0     0     0</v>
   <i type="logical" name="LTCTE"> F  </i>
   <i type="logical" name="LTETE"> F  </i>
   <i type="logical" name="LTRIPLET"> F  </i>
   <i type="logical" name="LFXCEPS"> F  </i>
   <i type="logical" name="LFXHEG"> F  </i>
   <i type="int" name="NATURALO">     2</i>
   <i type="logical" name="L2ORDER"> F  </i>
   <i type="logical" name="LMP2LT"> F  </i>
   <i type="logical" name="LUSEW"> F  </i>
   <i name="ENCUTGW">     -2.00000000</i>
   <i name="ENCUTGWSOFT">     -2.00000000</i>
   <i name="ENCUTLF">     -1.00000000</i>
   <i type="int" name="LMAXMP2">    -1</i>
   <i name="SCISSOR">      0.00000000</i>
   <i type="int" name="NOMEGA">     0</i>
   <i type="int" name="NOMEGAR">     0</i>
   <i type="int" name="NBANDSGW">    -1</i>
   <i type="int" name="NBANDSO">    -1</i>
   <i type="int" name="NBANDSV">    -1</i>
   <i type="int" name="NELM">   200</i>
   <i type="int" name="NELMHF">     1</i>
   <i type="int" name="DIM">     3</i>
   <i type="int" name="ANTIRES">     0</i>
   <i name="OMEGAMAX">    -30.00000000</i>
   <i name="OMEGAMIN">    -30.00000000</i>
   <i name="OMEGATL">   -200.00000000</i>
   <i type="int" name="OMEGAGRID">   140</i>
   <i name="CSHIFT">     -0.10000000</i>
   <i type="logical" name="SELFENERGY"> F  </i>
   <i type="logical" name="LSPECTRAL"> F  </i>
   <i type="logical" name="LSPECTRALGW"> F  </i>
   <i type="logical" name="LSINGLES"> F  </i>
   <i type="logical" name="LFERMIGW"> F  </i>
   <i type="logical" name="ODDONLYGW"> F  </i>
   <i type="logical" name="EVENONLYGW"> F  </i>
   <i type="int" name="NKREDLFX">     1</i>
   <i type="int" name="NKREDLFY">     1</i>
   <i type="int" name="NKREDLFZ">     1</i>
   <i type="int" name="MAXMEM">  2800</i>
   <i type="int" name="TELESCOPE">     0</i>
   <i type="int" name="TAUPAR">     1</i>
   <i type="int" name="OMEGAPAR">    -1</i>
   <i name="LAMBDA">      1.00000000</i>
  </separator>
  <separator name="External order field" >
   <i name="OFIELD_KAPPA">      0.00000000</i>
   <v name="OFIELD_K">      0.00000000      0.00000000      0.00000000</v>
   <i name="OFIELD_Q6_NEAR">      0.00000000</i>
   <i name="OFIELD_Q6_FAR">      0.00000000</i>
   <i name="OFIELD_A">      0.00000000</i>
  </separator>
  <separator name="solvation model" >
   <i type="logical" name="LSOL"> F  </i>
  </separator>
 </parameters>
 <atominfo>
  <atoms>     102 </atoms>
  <types>       3 </types>
  <array name="atoms" >
   <dimension dim="1">ion</dimension>
   <field type="string">element</field>
   <field type="int">atomtype</field>
   <set>
    <rc><c>N </c><c>   1</c></rc>
    <rc><c>N </c><c>   1</c></rc>
    <rc><c>N </c><c>   1</c></rc>
    <rc><c>N </c><c>   1</c></rc>
    <rc><c>N </c><c>   1</c></rc>
    <rc><c>N </c><c>   1</c></rc>
    <rc><c>N </c><c>   1</c></rc>
    <rc><c>N </c><c>   1</c></rc>
    <rc><c>N </c><c>   1</c></rc>
    <rc><c>N </c><c>   1</c></rc>
    <rc><c>N </c><c>   1</c></rc>
    <rc><c>N </c><c>   1</c></rc>
    <rc><c>C </c><c>   2</c></rc>
    <rc><c>C </c><c>   2</c></rc>
    <rc><c>C </c><c>   2</c></rc>
    <rc><c>C </c><c>   2</c></rc>
    <rc><c>C </c><c>   2</c></rc>
    <rc><c>C </c><c>   2</c></rc>
    <rc><c>C </c><c>   2</c></rc>
    <rc><c>C </c><c>   2</c></rc>
    <rc><c>C </c><c>   2</c></rc>
    <rc><c>C </c><c>   2</c></rc>
    <rc><c>C </c><c>   2</c></rc>
    <rc><c>C </c><c>   2</c></rc>
    <rc><c>C </c><c>   2</c></rc>
    <rc><c>C </c><c>   2</c></rc>
    <rc><c>C </c><c>   2</c></rc>
    <rc><c>C </c><c>   2</c></rc>
    <rc><c>C </c><c>   2</c></rc>
    <rc><c>C </c><c>   2</c></rc>
    <rc><c>C </c><c>   2</c></rc>
    <rc><c>C </c><c>   2</c></rc>
    <rc><c>C </c><c>   2</c></rc>
    <rc><c>C </c><c>   2</c></rc>
    <rc><c>C </c><c>   2</c></rc>
    <rc><c>C </c><c>   2</c></rc>
    <rc><c>C </c><c>   2</c></rc>
    <rc><c>C </c><c>   2</c></rc>
    <rc><c>C </c><c>   2</c></rc>
    <rc><c>C </c><c>   2</c></rc>
    <rc><c>C </c><c>   2</c></rc>
    <rc><c>C </c><c>   2</c></rc>
    <rc><c>C </c><c>   2</c></rc>
    <rc><c>C </c><c>   2</c></rc>
    <rc><c>C </c><c>   2</c></rc>
    <rc><c>C </c><c>   2</c></rc>
    <rc><c>C </c><c>   2</c></rc>
    <rc><c>C </c><c>   2</c></rc>
    <rc><c>C </c><c>   2</c></rc>
    <rc><c>C </c><c>   2</c></rc>
    <rc><c>C </c><c>   2</c></rc>
    <rc><c>C </c><c>   2</c></rc>
    <rc><c>C </c><c>   2</c></rc>
    <rc><c>C </c><c>   2</c></rc>
    <rc><c>C </c><c>   2</c></rc>
    <rc><c>C </c><c>   2</c></rc>
    <rc><c>C </c><c>   2</c></rc>
    <rc><c>C </c><c>   2</c></rc>
    <rc><c>C </c><c>   2</c></rc>
    <rc><c>C </c><c>   2</c></rc>
    <rc><c>C </c><c>   2</c></rc>
    <rc><c>C </c><c>   2</c></rc>
    <rc><c>C </c><c>   2</c></rc>
    <rc><c>C </c><c>   2</c></rc>
    <rc><c>C </c><c>   2</c></rc>
    <rc><c>C </c><c>   2</c></rc>
    <rc><c>C </c><c>   2</c></rc>
    <rc><c>C </c><c>   2</c></rc>
    <rc><c>C </c><c>   2</c></rc>
    <rc><c>C </c><c>   2</c></rc>
    <rc><c>C </c><c>   2</c></rc>
    <rc><c>C </c><c>   2</c></rc>
    <rc><c>H </c><c>   3</c></rc>
    <rc><c>H </c><c>   3</c></rc>
    <rc><c>H </c><c>   3</c></rc>
    <rc><c>H </c><c>   3</c></rc>
    <rc><c>H </c><c>   3</c></rc>
    <rc><c>H </c><c>   3</c></rc>
    <rc><c>H </c><c>   3</c></rc>
    <rc><c>H </c><c>   3</c></rc>
    <rc><c>H </c><c>   3</c></rc>
    <rc><c>H </c><c>   3</c></rc>
    <rc><c>H </c><c>   3</c></rc>
    <rc><c>H </c><c>   3</c></rc>
    <rc><c>H </c><c>   3</c></rc>
    <rc><c>H </c><c>   3</c></rc>
    <rc><c>H </c><c>   3</c></rc>
    <rc><c>H </c><c>   3</c></rc>
    <rc><c>H </c><c>   3</c></rc>
    <rc><c>H </c><c>   3</c></rc>
    <rc><c>H </c><c>   3</c></rc>
    <rc><c>H </c><c>   3</c></rc>
    <rc><c>H </c><c>   3</c></rc>
    <rc><c>H </c><c>   3</c></rc>
    <rc><c>H </c><c>   3</c></rc>
    <rc><c>H </c><c>   3</c></rc>
    <rc><c>H </c><c>   3</c></rc>
    <rc><c>H </c><c>   3</c></rc>
    <rc><c>H </c><c>   3</c></rc>
    <rc><c>H </c><c>   3</c></rc>
    <rc><c>H </c><c>   3</c></rc>
    <rc><c>H </c><c>   3</c></rc>
   </set>
  </array>
  <array name="atomtypes" >
   <dimension dim="1">type</dimension>
   <field type="int">atomspertype</field>
   <field type="string">element</field>
   <field>mass</field>
   <field>valence</field>
   <field type="string">pseudopotential</field>
   <set>
    <rc><c>  12</c><c>N </c><c>     14.00100000</c><c>      5.00000000</c><c>  PAW_PBE N 08Apr2002                   </c></rc>
    <rc><c>  60</c><c>C </c><c>     12.01100000</c><c>      4.00000000</c><c>  PAW_PBE C 08Apr2002                   </c></rc>
    <rc><c>  30</c><c>H </c><c>      1.00000000</c><c>      1.00000000</c><c>  PAW_PBE H 15Jun2001                   </c></rc>
   </set>
  </array>
 </atominfo>
 <structure name="initialpos" >
  <crystal>
   <varray name="basis" >
    <v>      23.09146589      -0.00121927       0.00000000 </v>
    <v>     -11.54678883      20.00134124       0.00000000 </v>
    <v>       0.00000000       0.00000000      20.00000000 </v>
   </varray>
   <i name="volume">   9236.92420894 </i>
   <varray name="rec_basis" >
    <v>       0.04330736       0.02500137       0.00000000 </v>
    <v>       0.00000264       0.04999817       0.00000000 </v>
    <v>       0.00000000       0.00000000       0.05000000 </v>
   </varray>
  </crystal>
  <varray name="positions" >
   <v>       0.52702333       0.25136670       0.45554896 </v>
   <v>       0.52698423       0.30854722       0.45560203 </v>
   <v>       0.78979125       0.30877544       0.45547460 </v>
   <v>       0.73261896       0.25154600       0.45535878 </v>
   <v>       0.73268915       0.51430622       0.45569767 </v>
   <v>       0.78982370       0.51414969       0.45574097 </v>
   <v>       0.30007614       0.53473327       0.45531268 </v>
   <v>       0.24292167       0.53489125       0.45535790 </v>
   <v>       0.50520118       0.74041518       0.45571529 </v>
   <v>       0.24325306       0.74077130       0.45565586 </v>
   <v>       0.50530417       0.79766180       0.45565210 </v>
   <v>       0.30040151       0.79807417       0.45558119 </v>
   <v>       0.53518572       0.06202063       0.53253592 </v>
   <v>       0.60410711       0.19991826       0.50603590 </v>
   <v>       0.53477718       0.16671772       0.51525109 </v>
   <v>       0.50086207       0.09821838       0.52887252 </v>
   <v>       0.50566756       0.32744861       0.51014547 </v>
   <v>       0.46884815       0.28098287       0.56026814 </v>
   <v>       0.46881046       0.22064328       0.56019024 </v>
   <v>       0.50561863       0.21104637       0.51001539 </v>
   <v>       0.71374528       0.21112096       0.50977711 </v>
   <v>       0.76018241       0.22066736       0.55989229 </v>
   <v>       0.82049963       0.28101555       0.55998279 </v>
   <v>       0.83011021       0.32755246       0.50996511 </v>
   <v>       0.60570094       0.09820996       0.52866668 </v>
   <v>       0.64026373       0.16673100       0.51508436 </v>
   <v>       0.49767639       0.54320221       0.53272558 </v>
   <v>       0.42716007       0.50880425       0.52887399 </v>
   <v>       0.39252052       0.54267350       0.51524090 </v>
   <v>       0.53509179       0.50597995       0.53276928 </v>
   <v>       0.60418521       0.43711663       0.50634910 </v>
   <v>       0.64025514       0.50645138       0.51549879 </v>
   <v>       0.60562010       0.54034197       0.52905363 </v>
   <v>       0.05385670       0.54340437       0.53278979 </v>
   <v>       0.97921580       0.50609878       0.53280103 </v>
   <v>       0.84127349       0.43716859       0.50637923 </v>
   <v>       0.87446780       0.40102472       0.51541477 </v>
   <v>       0.94300553       0.43559388       0.52897325 </v>
   <v>       0.83013305       0.53560089       0.51023736 </v>
   <v>       0.82053618       0.57246082       0.56035427 </v>
   <v>       0.76017649       0.57240990       0.56039405 </v>
   <v>       0.71375884       0.53564887       0.51021592 </v>
   <v>       0.20277404       0.51372001       0.50997258 </v>
   <v>       0.21241628       0.47700572       0.56020019 </v>
   <v>       0.27268776       0.47689417       0.56016780 </v>
   <v>       0.31903117       0.51350267       0.50989250 </v>
   <v>       0.50084645       0.43547341       0.52900608 </v>
   <v>       0.53483813       0.40094193       0.51545474 </v>
   <v>       0.15854157       0.54297238       0.51536344 </v>
   <v>       0.09003166       0.50907419       0.52897182 </v>
   <v>       0.94301690       0.54042371       0.52912383 </v>
   <v>       0.87449037       0.50648636       0.51554651 </v>
   <v>       0.42857483       0.61201040       0.50621522 </v>
   <v>       0.09010105       0.61391299       0.52908024 </v>
   <v>       0.15861834       0.64844573       0.51547875 </v>
   <v>       0.19180278       0.61230420       0.50628238 </v>
   <v>       0.52694496       0.72169179       0.51009324 </v>
   <v>       0.56407080       0.76827040       0.56001685 </v>
   <v>       0.21241545       0.76840455       0.56015762 </v>
   <v>       0.20291959       0.72192204       0.51011247 </v>
   <v>       0.49790184       0.64822570       0.51543308 </v>
   <v>       0.53191824       0.61371607       0.52902092 </v>
   <v>       0.49782568       0.98738442       0.53259599 </v>
   <v>       0.53209922       0.95113411       0.52886063 </v>
   <v>       0.49807135       0.88259324       0.51539096 </v>
   <v>       0.42872361       0.84944859       0.50635517 </v>
   <v>       0.56412500       0.82862068       0.55999016 </v>
   <v>       0.52708531       0.83814466       0.51002299 </v>
   <v>       0.31918319       0.83839957       0.51005216 </v>
   <v>       0.27270021       0.82877021       0.56014281 </v>
   <v>       0.39266006       0.88273023       0.51539428 </v>
   <v>       0.42730090       0.95124889       0.52887914 </v>
   <v>       0.63049551       0.25275922       0.49295613 </v>
   <v>       0.44659727       0.07256366       0.53329538 </v>
   <v>       0.44542514       0.18441012       0.60053045 </v>
   <v>       0.44549390       0.29375945       0.60069098 </v>
   <v>       0.85664727       0.29377681       0.60040263 </v>
   <v>       0.74735954       0.18443655       0.60023055 </v>
   <v>       0.63428909       0.07252505       0.53288739 </v>
   <v>       0.39862348       0.45453838       0.53312967 </v>
   <v>       0.63067981       0.41075413       0.49327161 </v>
   <v>       0.78841453       0.41077211       0.49332771 </v>
   <v>       0.96868766       0.40699976       0.53313979 </v>
   <v>       0.74734205       0.59572457       0.60082271 </v>
   <v>       0.85670443       0.59578849       0.60076513 </v>
   <v>       0.28558752       0.45368020       0.60063857 </v>
   <v>       0.17632762       0.45387572       0.60069398 </v>
   <v>       0.44657521       0.40681575       0.53329336 </v>
   <v>       0.06434555       0.45480742       0.53322028 </v>
   <v>       0.40210970       0.63838880       0.49311951 </v>
   <v>       0.63418923       0.59461411       0.53330710 </v>
   <v>       0.06446459       0.64254178       0.53339489 </v>
   <v>       0.24465215       0.63870739       0.49317374 </v>
   <v>       0.58763428       0.75554322       0.60028766 </v>
   <v>       0.17621151       0.75560023       0.60052731 </v>
   <v>       0.58619516       0.64237168       0.53330173 </v>
   <v>       0.96869624       0.59468397       0.53349747 </v>
   <v>       0.58638470       0.97678092       0.53307457 </v>
   <v>       0.40224003       0.79657988       0.49338212 </v>
   <v>       0.58770165       0.86489612       0.60026178 </v>
   <v>       0.28546832       0.86494656       0.60052232 </v>
   <v>       0.39877655       0.97699808       0.53309372 </v>
  </varray>
 </structure>
 <calculation>
  <scstep>
   <time name="dav">  322.88  326.35</time>
   <time name="total">  323.02  326.50</time>
   <energy>
    <i name="alphaZ">     55.87131679 </i>
    <i name="ewald">  38992.39559304 </i>
    <i name="hartreedc"> -49130.46404045 </i>
    <i name="XCdc">   1145.03853321 </i>
    <i name="pawpsdc">  30881.31749910 </i>
    <i name="pawaedc"> -30939.16559030 </i>
    <i name="eentropy">     -0.00000000 </i>
    <i name="bandstr">  -4120.62948036 </i>
    <i name="atom">  12377.91639022 </i>
    <i name="e_fr_energy">   -737.71977874 </i>
    <i name="e_wo_entrp">   -737.71977874 </i>
    <i name="e_0_energy">   -737.71977874 </i>
   </energy>
  </scstep>
  <scstep>
   <time name="dav">  377.09  381.04</time>
   <time name="total">  377.09  381.04</time>
   <energy>
    <i name="e_fr_energy">   -738.41378109 </i>
    <i name="e_wo_entrp">   -738.41378109 </i>
    <i name="e_0_energy">   -738.41378109 </i>
   </energy>
  </scstep>
  <scstep>
   <time name="dav">  412.27  416.60</time>
   <time name="total">  412.28  416.60</time>
   <energy>
    <i name="e_fr_energy">   -738.43247549 </i>
    <i name="e_wo_entrp">   -738.43247549 </i>
    <i name="e_0_energy">   -738.43247549 </i>
   </energy>
  </scstep>
  <scstep>
   <time name="dav">  372.12  376.09</time>
   <time name="total">  372.12  376.09</time>
   <energy>
    <i name="e_fr_energy">   -738.43281393 </i>
    <i name="e_wo_entrp">   -738.43281393 </i>
    <i name="e_0_energy">   -738.43281393 </i>
   </energy>
  </scstep>
  <scstep>
   <time name="dav">  352.75  356.59</time>
   <time name="total">  352.76  356.59</time>
   <energy>
    <i name="e_fr_energy">   -738.43283206 </i>
    <i name="e_wo_entrp">   -738.43283206 </i>
    <i name="e_0_energy">   -738.43283206 </i>
   </energy>
  </scstep>
  <scstep>
   <time name="dav">  279.86  282.85</time>
   <time name="total">  279.87  282.85</time>
   <energy>
    <i name="alphaZ">     55.87131679 </i>
    <i name="ewald">  38992.39559304 </i>
    <i name="hartreedc"> -49130.46404045 </i>
    <i name="XCdc">   1145.03853321 </i>
    <i name="pawpsdc">  30881.31749910 </i>
    <i name="pawaedc"> -30939.16559030 </i>
    <i name="eentropy">     -0.00000000 </i>
    <i name="bandstr">  -4121.34253414 </i>
    <i name="atom">  12377.91639022 </i>
    <i name="e_fr_energy">   -738.43283253 </i>
    <i name="e_wo_entrp">   -738.43283253 </i>
    <i name="e_0_energy">   -738.43283253 </i>
   </energy>
  </scstep>
  <structure>
   <crystal>
    <varray name="basis" >
     <v>      23.09146589      -0.00121927       0.00000000 </v>
     <v>     -11.54678883      20.00134124       0.00000000 </v>
     <v>       0.00000000       0.00000000      20.00000000 </v>
    </varray>
    <i name="volume">   9236.92420894 </i>
    <varray name="rec_basis" >
     <v>       0.04330736       0.02500137       0.00000000 </v>
     <v>       0.00000264       0.04999817       0.00000000 </v>
     <v>       0.00000000       0.00000000       0.05000000 </v>
    </varray>
   </crystal>
   <varray name="positions" >
    <v>       0.52702333       0.25136670       0.45554896 </v>
    <v>       0.52698423       0.30854722       0.45560203 </v>
    <v>       0.78979125       0.30877544       0.45547460 </v>
    <v>       0.73261896       0.25154600       0.45535878 </v>
    <v>       0.73268915       0.51430622       0.45569767 </v>
    <v>       0.78982370       0.51414969       0.45574097 </v>
    <v>       0.30007614       0.53473327       0.45531268 </v>
    <v>       0.24292167       0.53489125       0.45535790 </v>
    <v>       0.50520118       0.74041518       0.45571529 </v>
    <v>       0.24325306       0.74077130       0.45565586 </v>
    <v>       0.50530417       0.79766180       0.45565210 </v>
    <v>       0.30040151       0.79807417       0.45558119 </v>
    <v>       0.53518572       0.06202063       0.53253592 </v>
    <v>       0.60410711       0.19991826       0.50603590 </v>
    <v>       0.53477718       0.16671772       0.51525109 </v>
    <v>       0.50086207       0.09821838       0.52887252 </v>
    <v>       0.50566756       0.32744861       0.51014547 </v>
    <v>       0.46884815       0.28098287       0.56026814 </v>
    <v>       0.46881046       0.22064328       0.56019024 </v>
    <v>       0.50561863       0.21104637       0.51001539 </v>
    <v>       0.71374528       0.21112096       0.50977711 </v>
    <v>       0.76018241       0.22066736       0.55989229 </v>
    <v>       0.82049963       0.28101555       0.55998279 </v>
    <v>       0.83011021       0.32755246       0.50996511 </v>
    <v>       0.60570094       0.09820996       0.52866668 </v>
    <v>       0.64026373       0.16673100       0.51508436 </v>
    <v>       0.49767639       0.54320221       0.53272558 </v>
    <v>       0.42716007       0.50880425       0.52887399 </v>
    <v>       0.39252052       0.54267350       0.51524090 </v>
    <v>       0.53509179       0.50597995       0.53276928 </v>
    <v>       0.60418521       0.43711663       0.50634910 </v>
    <v>       0.64025514       0.50645138       0.51549879 </v>
    <v>       0.60562010       0.54034197       0.52905363 </v>
    <v>       0.05385670       0.54340437       0.53278979 </v>
    <v>       0.97921580       0.50609878       0.53280103 </v>
    <v>       0.84127349       0.43716859       0.50637923 </v>
    <v>       0.87446780       0.40102472       0.51541477 </v>
    <v>       0.94300553       0.43559388       0.52897325 </v>
    <v>       0.83013305       0.53560089       0.51023736 </v>
    <v>       0.82053618       0.57246082       0.56035427 </v>
    <v>       0.76017649       0.57240990       0.56039405 </v>
    <v>       0.71375884       0.53564887       0.51021592 </v>
    <v>       0.20277404       0.51372001       0.50997258 </v>
    <v>       0.21241628       0.47700572       0.56020019 </v>
    <v>       0.27268776       0.47689417       0.56016780 </v>
    <v>       0.31903117       0.51350267       0.50989250 </v>
    <v>       0.50084645       0.43547341       0.52900608 </v>
    <v>       0.53483813       0.40094193       0.51545474 </v>
    <v>       0.15854157       0.54297238       0.51536344 </v>
    <v>       0.09003166       0.50907419       0.52897182 </v>
    <v>       0.94301690       0.54042371       0.52912383 </v>
    <v>       0.87449037       0.50648636       0.51554651 </v>
    <v>       0.42857483       0.61201040       0.50621522 </v>
    <v>       0.09010105       0.61391299       0.52908024 </v>
    <v>       0.15861834       0.64844573       0.51547875 </v>
    <v>       0.19180278       0.61230420       0.50628238 </v>
    <v>       0.52694496       0.72169179       0.51009324 </v>
    <v>       0.56407080       0.76827040       0.56001685 </v>
    <v>       0.21241545       0.76840455       0.56015762 </v>
    <v>       0.20291959       0.72192204       0.51011247 </v>
    <v>       0.49790184       0.64822570       0.51543308 </v>
    <v>       0.53191824       0.61371607       0.52902092 </v>
    <v>       0.49782568       0.98738442       0.53259599 </v>
    <v>       0.53209922       0.95113411       0.52886063 </v>
    <v>       0.49807135       0.88259324       0.51539096 </v>
    <v>       0.42872361       0.84944859       0.50635517 </v>
    <v>       0.56412500       0.82862068       0.55999016 </v>
    <v>       0.52708531       0.83814466       0.51002299 </v>
    <v>       0.31918319       0.83839957       0.51005216 </v>
    <v>       0.27270021       0.82877021       0.56014281 </v>
    <v>       0.39266006       0.88273023       0.51539428 </v>
    <v>       0.42730090       0.95124889       0.52887914 </v>
    <v>       0.63049551       0.25275922       0.49295613 </v>
    <v>       0.44659727       0.07256366       0.53329538 </v>
    <v>       0.44542514       0.18441012       0.60053045 </v>
    <v>       0.44549390       0.29375945       0.60069098 </v>
    <v>       0.85664727       0.29377681       0.60040263 </v>
    <v>       0.74735954       0.18443655       0.60023055 </v>
    <v>       0.63428909       0.07252505       0.53288739 </v>
    <v>       0.39862348       0.45453838       0.53312967 </v>
    <v>       0.63067981       0.41075413       0.49327161 </v>
    <v>       0.78841453       0.41077211       0.49332771 </v>
    <v>       0.96868766       0.40699976       0.53313979 </v>
    <v>       0.74734205       0.59572457       0.60082271 </v>
    <v>       0.85670443       0.59578849       0.60076513 </v>
    <v>       0.28558752       0.45368020       0.60063857 </v>
    <v>       0.17632762       0.45387572       0.60069398 </v>
    <v>       0.44657521       0.40681575       0.53329336 </v>
    <v>       0.06434555       0.45480742       0.53322028 </v>
    <v>       0.40210970       0.63838880       0.49311951 </v>
    <v>       0.63418923       0.59461411       0.53330710 </v>
    <v>       0.06446459       0.64254178       0.53339489 </v>
    <v>       0.24465215       0.63870739       0.49317374 </v>
    <v>       0.58763428       0.75554322       0.60028766 </v>
    <v>       0.17621151       0.75560023       0.60052731 </v>
    <v>       0.58619516       0.64237168       0.53330173 </v>
    <v>       0.96869624       0.59468397       0.53349747 </v>
    <v>       0.58638470       0.97678092       0.53307457 </v>
    <v>       0.40224003       0.79657988       0.49338212 </v>
    <v>       0.58770165       0.86489612       0.60026178 </v>
    <v>       0.28546832       0.86494656       0.60052232 </v>
    <v>       0.39877655       0.97699808       0.53309372 </v>
   </varray>
  </structure>
  <varray name="forces" >
   <v>       0.00089870       0.00071570       0.00323276 </v>
   <v>      -0.00249770       0.00096061      -0.00171351 </v>
   <v>      -0.00108889       0.00234998      -0.00478207 </v>
   <v>      -0.00593238       0.00273875       0.00667432 </v>
   <v>      -0.00092118       0.00152885      -0.00363607 </v>
   <v>       0.00084189       0.00008242       0.00512974 </v>
   <v>      -0.00171912       0.00196608      -0.00163822 </v>
   <v>       0.00056952      -0.00074800       0.00050172 </v>
   <v>      -0.00492211       0.00278108       0.00499945 </v>
   <v>       0.00040966      -0.00111997      -0.00203021 </v>
   <v>      -0.00092419      -0.00391695       0.00026476 </v>
   <v>      -0.00168664      -0.00273487       0.00465498 </v>
   <v>      -0.00244115      -0.00330170      -0.00084579 </v>
   <v>      -0.00368931      -0.00303284      -0.00182237 </v>
   <v>       0.00358604       0.00042630       0.00348700 </v>
   <v>      -0.00258228       0.00184783       0.00228717 </v>
   <v>      -0.00082965      -0.00196200       0.00188153 </v>
   <v>      -0.00102995       0.00173340      -0.00010082 </v>
   <v>       0.00110355      -0.00507779      -0.00349544 </v>
   <v>       0.00375013       0.00192568       0.00648850 </v>
   <v>       0.00361032       0.00279077      -0.00295450 </v>
   <v>       0.00082976       0.00312228      -0.00205116 </v>
   <v>       0.00230688      -0.00157494       0.00456988 </v>
   <v>      -0.00162641      -0.00366158       0.00330030 </v>
   <v>       0.00007266       0.00009696       0.00174198 </v>
   <v>      -0.00500896      -0.00001891       0.00129095 </v>
   <v>       0.00563751       0.00454598      -0.00121560 </v>
   <v>      -0.00328516      -0.00098878      -0.00112829 </v>
   <v>       0.00197019       0.00446422       0.00209843 </v>
   <v>       0.00078067      -0.00147056      -0.00218629 </v>
   <v>      -0.00127586      -0.00179499       0.00062612 </v>
   <v>      -0.00007678      -0.00312920      -0.00035828 </v>
   <v>      -0.00263977       0.00106321      -0.00177047 </v>
   <v>      -0.00179221      -0.00034454       0.00040675 </v>
   <v>      -0.00310626       0.00322800       0.00051602 </v>
   <v>       0.00151787      -0.00065012      -0.00074149 </v>
   <v>       0.00182518       0.00211410      -0.00060881 </v>
   <v>       0.00066027      -0.00645932      -0.00295314 </v>
   <v>      -0.00398149       0.00584553       0.00290429 </v>
   <v>       0.00112708      -0.00585718       0.00145011 </v>
   <v>      -0.00168139       0.00659706      -0.00070633 </v>
   <v>       0.00678767       0.00161896       0.00107176 </v>
   <v>       0.00261269       0.00421060      -0.00030253 </v>
   <v>       0.00169681      -0.00249776       0.00037479 </v>
   <v>      -0.00358098      -0.00338297       0.00448422 </v>
   <v>      -0.00020897      -0.00424497      -0.00188952 </v>
   <v>       0.00213550      -0.00331092       0.00294906 </v>
   <v>       0.00077908       0.00012055       0.00363853 </v>
   <v>       0.00104628       0.00593610      -0.00138716 </v>
   <v>       0.00231892      -0.00563672       0.00083650 </v>
   <v>      -0.00051474      -0.00135132       0.00179224 </v>
   <v>      -0.00024740       0.00028484       0.00278014 </v>
   <v>       0.00494927       0.00035001      -0.00133671 </v>
   <v>      -0.00079212       0.00219690      -0.00022114 </v>
   <v>       0.00058220       0.00254418      -0.00294919 </v>
   <v>       0.00101498      -0.00167182      -0.00101610 </v>
   <v>       0.00019608       0.00118219      -0.00404516 </v>
   <v>       0.00419704      -0.00503488      -0.00105277 </v>
   <v>      -0.00323234       0.00151400       0.00374176 </v>
   <v>       0.00145921       0.00366879       0.00616696 </v>
   <v>      -0.00306496      -0.00374853       0.00031340 </v>
   <v>       0.00040953       0.00878593      -0.00292227 </v>
   <v>       0.00678878       0.00182459      -0.00079702 </v>
   <v>       0.00011261      -0.00022850       0.00208914 </v>
   <v>      -0.00174108       0.00028791      -0.00060008 </v>
   <v>       0.00411456       0.00120177      -0.00007189 </v>
   <v>      -0.00118083       0.00203492      -0.00261531 </v>
   <v>      -0.00156518      -0.00299312      -0.00224044 </v>
   <v>      -0.00157124      -0.00113449      -0.00306184 </v>
   <v>      -0.00282294      -0.00171258       0.00153744 </v>
   <v>       0.00499992      -0.00249843       0.00230216 </v>
   <v>       0.00022688       0.00349736      -0.00018121 </v>
   <v>       0.00323044       0.00089745       0.00105539 </v>
   <v>       0.00384681      -0.00033102      -0.00350110 </v>
   <v>      -0.00275206       0.00189858       0.00317971 </v>
   <v>      -0.00094838       0.00141690       0.00241781 </v>
   <v>       0.00065928      -0.00190190      -0.00419180 </v>
   <v>       0.00208517       0.00048344      -0.00115531 </v>
   <v>       0.00119665      -0.00017922      -0.00243176 </v>
   <v>       0.00104016      -0.00077701      -0.00372230 </v>
   <v>      -0.00278708      -0.00101175       0.00296455 </v>
   <v>       0.00157609      -0.00159432       0.00054718 </v>
   <v>       0.00078011       0.00112642      -0.00110668 </v>
   <v>       0.00432604      -0.00172115      -0.00267232 </v>
   <v>      -0.00055049       0.00269510      -0.00074016 </v>
   <v>      -0.00347503      -0.00099066      -0.00047616 </v>
   <v>       0.00067191      -0.00326544       0.00215341 </v>
   <v>      -0.00039380       0.00271320      -0.00327371 </v>
   <v>      -0.00178730       0.00060642      -0.00198149 </v>
   <v>       0.00161502      -0.00125788       0.00186186 </v>
   <v>      -0.00167020      -0.00058484      -0.00078020 </v>
   <v>      -0.00013472      -0.00181951      -0.00280227 </v>
   <v>      -0.00133985      -0.00094574       0.00208643 </v>
   <v>      -0.00261320       0.00267222      -0.00320317 </v>
   <v>       0.00177180       0.00064245      -0.00264209 </v>
   <v>      -0.00197252      -0.00415715      -0.00058337 </v>
   <v>       0.00040818      -0.00100765      -0.00467805 </v>
   <v>      -0.00484151      -0.00131119      -0.00252116 </v>
   <v>       0.00024484       0.00040405       0.00074980 </v>
   <v>       0.00178438       0.00018913       0.00003733 </v>
   <v>      -0.00107492       0.00068073      -0.00169355 </v>
   <v>      -0.00156004      -0.00046281      -0.00205247 </v>
  </varray>
  <varray name="stress" >
   <v>       0.00904401       0.00107617      -0.00120774 </v>
   <v>       0.00107616       0.01213826      -0.00689742 </v>
   <v>      -0.00120774      -0.00689742      -0.24566866 </v>
  </varray>
  <energy>
   <i name="e_fr_energy">   -740.68958613 </i>
   <i name="e_wo_entrp">   -740.68958613 </i>
   <i name="e_0_energy">     -0.00000000 </i>
  </energy>
  <time name="totalsc"> 2490.04 2517.37</time>
  <eigenvalues>
   <array>
    <dimension dim="1">band</dimension>
    <dimension dim="2">kpoint</dimension>
    <dimension dim="3">spin</dimension>
    <field>eigene</field>
    <field>occ</field>
    <set>
     <set comment="spin 1">
      <set comment="kpoint 1">
       <r>  -25.1298    1.0000 </r>
       <r>  -25.1274    1.0000 </r>
       <r>  -25.1208    1.0000 </r>
       <r>  -25.1192    1.0000 </r>
       <r>  -25.1183    1.0000 </r>
       <r>  -25.1156    1.0000 </r>
       <r>  -21.8040    1.0000 </r>
       <r>  -21.8034    1.0000 </r>
       <r>  -21.6252    1.0000 </r>
       <r>  -21.5526    1.0000 </r>
       <r>  -21.5519    1.0000 </r>
       <r>  -21.2095    1.0000 </r>
       <r>  -20.8188    1.0000 </r>
       <r>  -20.8106    1.0000 </r>
       <r>  -20.5713    1.0000 </r>
       <r>  -20.5708    1.0000 </r>
       <r>  -20.3517    1.0000 </r>
       <r>  -20.3512    1.0000 </r>
       <r>  -20.2173    1.0000 </r>
       <r>  -20.2172    1.0000 </r>
       <r>  -20.1536    1.0000 </r>
       <r>  -19.9996    1.0000 </r>
       <r>  -19.8965    1.0000 </r>
       <r>  -19.8957    1.0000 </r>
       <r>  -19.3043    1.0000 </r>
       <r>  -18.9906    1.0000 </r>
       <r>  -18.9901    1.0000 </r>
       <r>  -18.6873    1.0000 </r>
       <r>  -18.6862    1.0000 </r>
       <r>  -18.2674    1.0000 </r>
       <r>  -18.2663    1.0000 </r>
       <r>  -18.2121    1.0000 </r>
       <r>  -17.9735    1.0000 </r>
       <r>  -17.9171    1.0000 </r>
       <r>  -17.5738    1.0000 </r>
       <r>  -17.5731    1.0000 </r>
       <r>  -16.4599    1.0000 </r>
       <r>  -16.4582    1.0000 </r>
       <r>  -16.2304    1.0000 </r>
       <r>  -16.2300    1.0000 </r>
       <r>  -16.0611    1.0000 </r>
       <r>  -16.0602    1.0000 </r>
       <r>  -16.0135    1.0000 </r>
       <r>  -16.0115    1.0000 </r>
       <r>  -15.9471    1.0000 </r>
       <r>  -15.9071    1.0000 </r>
       <r>  -15.8777    1.0000 </r>
       <r>  -15.8462    1.0000 </r>
       <r>  -15.4189    1.0000 </r>
       <r>  -15.1467    1.0000 </r>
       <r>  -15.1418    1.0000 </r>
       <r>  -15.1407    1.0000 </r>
       <r>  -14.4911    1.0000 </r>
       <r>  -14.4902    1.0000 </r>
       <r>  -14.4003    1.0000 </r>
       <r>  -14.1043    1.0000 </r>
       <r>  -14.0164    1.0000 </r>
       <r>  -14.0153    1.0000 </r>
       <r>  -13.9858    1.0000 </r>
       <r>  -13.9850    1.0000 </r>
       <r>  -13.3078    1.0000 </r>
       <r>  -13.1563    1.0000 </r>
       <r>  -13.1559    1.0000 </r>
       <r>  -12.6566    1.0000 </r>
       <r>  -12.5629    1.0000 </r>
       <r>  -12.5616    1.0000 </r>
       <r>  -12.4279    1.0000 </r>
       <r>  -12.4275    1.0000 </r>
       <r>  -12.3722    1.0000 </r>
       <r>  -12.1997    1.0000 </r>
       <r>  -12.1991    1.0000 </r>
       <r>  -12.1705    1.0000 </r>
       <r>  -12.1436    1.0000 </r>
       <r>  -12.0470    1.0000 </r>
       <r>  -12.0462    1.0000 </r>
       <r>  -11.6886    1.0000 </r>
       <r>  -11.6883    1.0000 </r>
       <r>  -11.6241    1.0000 </r>
       <r>  -11.5793    1.0000 </r>
       <r>  -11.5783    1.0000 </r>
       <r>  -11.5008    1.0000 </r>
       <r>  -11.4139    1.0000 </r>
       <r>  -11.4132    1.0000 </r>
       <r>  -11.1039    1.0000 </r>
       <r>  -11.1031    1.0000 </r>
       <r>  -10.7783    1.0000 </r>
       <r>  -10.7457    1.0000 </r>
       <r>  -10.7447    1.0000 </r>
       <r>  -10.7188    1.0000 </r>
       <r>  -10.5629    1.0000 </r>
       <r>  -10.4069    1.0000 </r>
       <r>  -10.3161    1.0000 </r>
       <r>  -10.2884    1.0000 </r>
       <r>  -10.2575    1.0000 </r>
       <r>  -10.2567    1.0000 </r>
       <r>  -10.1655    1.0000 </r>
       <r>  -10.1532    1.0000 </r>
       <r>  -10.1514    1.0000 </r>
       <r>  -10.0781    1.0000 </r>
       <r>  -10.0773    1.0000 </r>
       <r>  -10.0504    1.0000 </r>
       <r>  -10.0499    1.0000 </r>
       <r>   -9.8837    1.0000 </r>
       <r>   -9.7272    1.0000 </r>
       <r>   -9.7254    1.0000 </r>
       <r>   -9.7017    1.0000 </r>
       <r>   -9.6680    1.0000 </r>
       <r>   -9.6652    1.0000 </r>
       <r>   -9.6631    1.0000 </r>
       <r>   -9.5505    1.0000 </r>
       <r>   -9.5496    1.0000 </r>
       <r>   -9.3669    1.0000 </r>
       <r>   -9.3665    1.0000 </r>
       <r>   -9.2558    1.0000 </r>
       <r>   -8.8510    1.0000 </r>
       <r>   -8.8498    1.0000 </r>
       <r>   -8.7427    1.0000 </r>
       <r>   -8.7050    1.0000 </r>
       <r>   -8.7043    1.0000 </r>
       <r>   -8.6809    1.0000 </r>
       <r>   -8.4738    1.0000 </r>
       <r>   -8.4732    1.0000 </r>
       <r>   -8.4081    1.0000 </r>
       <r>   -8.3286    1.0000 </r>
       <r>   -8.3254    1.0000 </r>
       <r>   -8.3250    1.0000 </r>
       <r>   -8.0831    1.0000 </r>
       <r>   -8.0824    1.0000 </r>
       <r>   -7.9293    1.0000 </r>
       <r>   -7.4965    1.0000 </r>
       <r>   -7.4771    1.0000 </r>
       <r>   -7.4754    1.0000 </r>
       <r>   -7.4006    1.0000 </r>
       <r>   -7.3991    1.0000 </r>
       <r>   -7.3542    1.0000 </r>
       <r>   -7.3540    1.0000 </r>
       <r>   -7.2635    1.0000 </r>
       <r>   -7.2563    1.0000 </r>
       <r>   -7.1823    1.0000 </r>
       <r>   -7.1730    1.0000 </r>
       <r>   -7.1212    1.0000 </r>
       <r>   -7.0421    1.0000 </r>
       <r>   -7.0403    1.0000 </r>
       <r>   -6.9129    1.0000 </r>
       <r>   -6.9108    1.0000 </r>
       <r>   -6.8375    1.0000 </r>
       <r>   -6.8349    1.0000 </r>
       <r>   -6.6249    1.0000 </r>
       <r>   -6.3642    1.0000 </r>
       <r>   -6.3630    1.0000 </r>
       <r>   -6.1031    1.0000 </r>
       <r>   -6.1004    1.0000 </r>
       <r>   -5.8710    1.0000 </r>
       <r>   -5.8681    1.0000 </r>
       <r>   -5.7651    1.0000 </r>
       <r>   -5.6264    1.0000 </r>
       <r>   -5.3405    1.0000 </r>
       <r>   -5.2914    1.0000 </r>
       <r>   -5.2905    1.0000 </r>
       <r>   -4.7723    1.0000 </r>
       <r>   -4.7718    1.0000 </r>
       <r>   -4.7594    1.0000 </r>
       <r>   -4.7587    1.0000 </r>
       <r>   -4.7265    1.0000 </r>
       <r>   -4.7122    1.0000 </r>
       <r>   -2.2579    0.0000 </r>
       <r>   -2.2532    0.0000 </r>
       <r>   -2.2298    0.0000 </r>
       <r>   -2.1344    0.0000 </r>
       <r>   -2.1016    0.0000 </r>
       <r>   -2.1004    0.0000 </r>
       <r>   -2.0973    0.0000 </r>
       <r>   -1.9423    0.0000 </r>
       <r>   -1.9412    0.0000 </r>
       <r>   -1.9193    0.0000 </r>
       <r>   -1.9187    0.0000 </r>
       <r>   -1.8673    0.0000 </r>
       <r>   -1.8167    0.0000 </r>
       <r>   -1.8158    0.0000 </r>
       <r>   -1.5957    0.0000 </r>
       <r>   -1.2338    0.0000 </r>
       <r>   -0.7529    0.0000 </r>
       <r>   -0.7010    0.0000 </r>
       <r>   -0.6987    0.0000 </r>
       <r>   -0.4771    0.0000 </r>
       <r>   -0.2983    0.0000 </r>
       <r>   -0.2956    0.0000 </r>
       <r>   -0.2113    0.0000 </r>
       <r>   -0.2105    0.0000 </r>
       <r>   -0.1956    0.0000 </r>
       <r>   -0.1676    0.0000 </r>
       <r>   -0.1665    0.0000 </r>
       <r>    0.0054    0.0000 </r>
       <r>    0.0071    0.0000 </r>
       <r>    0.1417    0.0000 </r>
       <r>    0.2925    0.0000 </r>
       <r>    0.2987    0.0000 </r>
       <r>    0.5074    0.0000 </r>
       <r>    0.5263    0.0000 </r>
       <r>    0.5273    0.0000 </r>
       <r>    0.6509    0.0000 </r>
       <r>    0.6516    0.0000 </r>
       <r>    0.6987    0.0000 </r>
       <r>    0.6994    0.0000 </r>
       <r>    0.7444    0.0000 </r>
       <r>    0.7579    0.0000 </r>
       <r>    0.8493    0.0000 </r>
       <r>    0.9397    0.0000 </r>
       <r>    0.9407    0.0000 </r>
       <r>    1.0392    0.0000 </r>
       <r>    1.0511    0.0000 </r>
       <r>    1.0521    0.0000 </r>
       <r>    1.1213    0.0000 </r>
       <r>    1.1386    0.0000 </r>
       <r>    1.1401    0.0000 </r>
       <r>    1.1910    0.0000 </r>
       <r>    1.2499    0.0000 </r>
       <r>    1.2528    0.0000 </r>
       <r>    1.2546    0.0000 </r>
       <r>    1.2873    0.0000 </r>
       <r>    1.3228    0.0000 </r>
       <r>    1.3248    0.0000 </r>
       <r>    1.3331    0.0000 </r>
       <r>    1.4144    0.0000 </r>
      </set>
      <set comment="kpoint 2">
       <r>  -25.1298    1.0000 </r>
       <r>  -25.1274    1.0000 </r>
       <r>  -25.1208    1.0000 </r>
       <r>  -25.1192    1.0000 </r>
       <r>  -25.1183    1.0000 </r>
       <r>  -25.1156    1.0000 </r>
       <r>  -21.8040    1.0000 </r>
       <r>  -21.8033    1.0000 </r>
       <r>  -21.6264    1.0000 </r>
       <r>  -21.5525    1.0000 </r>
       <r>  -21.5506    1.0000 </r>
       <r>  -21.2100    1.0000 </r>
       <r>  -20.8188    1.0000 </r>
       <r>  -20.8106    1.0000 </r>
       <r>  -20.5713    1.0000 </r>
       <r>  -20.5703    1.0000 </r>
       <r>  -20.3518    1.0000 </r>
       <r>  -20.3512    1.0000 </r>
       <r>  -20.2173    1.0000 </r>
       <r>  -20.2172    1.0000 </r>
       <r>  -20.1538    1.0000 </r>
       <r>  -19.9995    1.0000 </r>
       <r>  -19.8966    1.0000 </r>
       <r>  -19.8959    1.0000 </r>
       <r>  -19.3037    1.0000 </r>
       <r>  -18.9910    1.0000 </r>
       <r>  -18.9903    1.0000 </r>
       <r>  -18.6867    1.0000 </r>
       <r>  -18.6858    1.0000 </r>
       <r>  -18.2690    1.0000 </r>
       <r>  -18.2679    1.0000 </r>
       <r>  -18.2106    1.0000 </r>
       <r>  -17.9720    1.0000 </r>
       <r>  -17.9176    1.0000 </r>
       <r>  -17.5739    1.0000 </r>
       <r>  -17.5730    1.0000 </r>
       <r>  -16.4599    1.0000 </r>
       <r>  -16.4579    1.0000 </r>
       <r>  -16.2305    1.0000 </r>
       <r>  -16.2299    1.0000 </r>
       <r>  -16.0625    1.0000 </r>
       <r>  -16.0613    1.0000 </r>
       <r>  -16.0126    1.0000 </r>
       <r>  -16.0117    1.0000 </r>
       <r>  -15.9461    1.0000 </r>
       <r>  -15.9069    1.0000 </r>
       <r>  -15.8778    1.0000 </r>
       <r>  -15.8462    1.0000 </r>
       <r>  -15.4185    1.0000 </r>
       <r>  -15.1467    1.0000 </r>
       <r>  -15.1419    1.0000 </r>
       <r>  -15.1402    1.0000 </r>
       <r>  -14.4943    1.0000 </r>
       <r>  -14.4911    1.0000 </r>
       <r>  -14.3966    1.0000 </r>
       <r>  -14.1043    1.0000 </r>
       <r>  -14.0172    1.0000 </r>
       <r>  -14.0165    1.0000 </r>
       <r>  -13.9849    1.0000 </r>
       <r>  -13.9842    1.0000 </r>
       <r>  -13.3076    1.0000 </r>
       <r>  -13.1565    1.0000 </r>
       <r>  -13.1561    1.0000 </r>
       <r>  -12.6561    1.0000 </r>
       <r>  -12.5628    1.0000 </r>
       <r>  -12.5614    1.0000 </r>
       <r>  -12.4280    1.0000 </r>
       <r>  -12.4276    1.0000 </r>
       <r>  -12.3724    1.0000 </r>
       <r>  -12.1998    1.0000 </r>
       <r>  -12.1992    1.0000 </r>
       <r>  -12.1706    1.0000 </r>
       <r>  -12.1432    1.0000 </r>
       <r>  -12.0472    1.0000 </r>
       <r>  -12.0463    1.0000 </r>
       <r>  -11.6884    1.0000 </r>
       <r>  -11.6882    1.0000 </r>
       <r>  -11.6241    1.0000 </r>
       <r>  -11.5793    1.0000 </r>
       <r>  -11.5783    1.0000 </r>
       <r>  -11.5018    1.0000 </r>
       <r>  -11.4140    1.0000 </r>
       <r>  -11.4122    1.0000 </r>
       <r>  -11.1039    1.0000 </r>
       <r>  -11.1035    1.0000 </r>
       <r>  -10.7790    1.0000 </r>
       <r>  -10.7455    1.0000 </r>
       <r>  -10.7433    1.0000 </r>
       <r>  -10.7190    1.0000 </r>
       <r>  -10.5625    1.0000 </r>
       <r>  -10.4074    1.0000 </r>
       <r>  -10.3165    1.0000 </r>
       <r>  -10.2883    1.0000 </r>
       <r>  -10.2577    1.0000 </r>
       <r>  -10.2569    1.0000 </r>
       <r>  -10.1655    1.0000 </r>
       <r>  -10.1531    1.0000 </r>
       <r>  -10.1510    1.0000 </r>
       <r>  -10.0781    1.0000 </r>
       <r>  -10.0774    1.0000 </r>
       <r>  -10.0504    1.0000 </r>
       <r>  -10.0498    1.0000 </r>
       <r>   -9.8839    1.0000 </r>
       <r>   -9.7275    1.0000 </r>
       <r>   -9.7259    1.0000 </r>
       <r>   -9.7017    1.0000 </r>
       <r>   -9.6680    1.0000 </r>
       <r>   -9.6651    1.0000 </r>
       <r>   -9.6625    1.0000 </r>
       <r>   -9.5503    1.0000 </r>
       <r>   -9.5495    1.0000 </r>
       <r>   -9.3670    1.0000 </r>
       <r>   -9.3666    1.0000 </r>
       <r>   -9.2561    1.0000 </r>
       <r>   -8.8510    1.0000 </r>
       <r>   -8.8494    1.0000 </r>
       <r>   -8.7428    1.0000 </r>
       <r>   -8.7050    1.0000 </r>
       <r>   -8.7042    1.0000 </r>
       <r>   -8.6809    1.0000 </r>
       <r>   -8.4738    1.0000 </r>
       <r>   -8.4731    1.0000 </r>
       <r>   -8.4083    1.0000 </r>
       <r>   -8.3285    1.0000 </r>
       <r>   -8.3253    1.0000 </r>
       <r>   -8.3249    1.0000 </r>
       <r>   -8.0832    1.0000 </r>
       <r>   -8.0824    1.0000 </r>
       <r>   -7.9296    1.0000 </r>
       <r>   -7.4966    1.0000 </r>
       <r>   -7.4772    1.0000 </r>
       <r>   -7.4756    1.0000 </r>
       <r>   -7.4005    1.0000 </r>
       <r>   -7.3991    1.0000 </r>
       <r>   -7.3546    1.0000 </r>
       <r>   -7.3541    1.0000 </r>
       <r>   -7.2634    1.0000 </r>
       <r>   -7.2557    1.0000 </r>
       <r>   -7.1824    1.0000 </r>
       <r>   -7.1726    1.0000 </r>
       <r>   -7.1214    1.0000 </r>
       <r>   -7.0419    1.0000 </r>
       <r>   -7.0401    1.0000 </r>
       <r>   -6.9130    1.0000 </r>
       <r>   -6.9110    1.0000 </r>
       <r>   -6.8374    1.0000 </r>
       <r>   -6.8355    1.0000 </r>
       <r>   -6.6242    1.0000 </r>
       <r>   -6.3645    1.0000 </r>
       <r>   -6.3635    1.0000 </r>
       <r>   -6.1027    1.0000 </r>
       <r>   -6.0999    1.0000 </r>
       <r>   -5.8714    1.0000 </r>
       <r>   -5.8686    1.0000 </r>
       <r>   -5.7647    1.0000 </r>
       <r>   -5.6266    1.0000 </r>
       <r>   -5.3404    1.0000 </r>
       <r>   -5.2914    1.0000 </r>
       <r>   -5.2906    1.0000 </r>
       <r>   -4.7723    1.0000 </r>
       <r>   -4.7718    1.0000 </r>
       <r>   -4.7595    1.0000 </r>
       <r>   -4.7587    1.0000 </r>
       <r>   -4.7265    1.0000 </r>
       <r>   -4.7122    1.0000 </r>
       <r>   -2.2579    0.0000 </r>
       <r>   -2.2532    0.0000 </r>
       <r>   -2.2299    0.0000 </r>
       <r>   -2.1343    0.0000 </r>
       <r>   -2.1016    0.0000 </r>
       <r>   -2.1001    0.0000 </r>
       <r>   -2.0973    0.0000 </r>
       <r>   -1.9423    0.0000 </r>
       <r>   -1.9413    0.0000 </r>
       <r>   -1.9194    0.0000 </r>
       <r>   -1.9191    0.0000 </r>
       <r>   -1.8677    0.0000 </r>
       <r>   -1.8170    0.0000 </r>
       <r>   -1.8148    0.0000 </r>
       <r>   -1.5960    0.0000 </r>
       <r>   -1.2333    0.0000 </r>
       <r>   -0.7574    0.0000 </r>
       <r>   -0.6995    0.0000 </r>
       <r>   -0.6957    0.0000 </r>
       <r>   -0.4769    0.0000 </r>
       <r>   -0.2992    0.0000 </r>
       <r>   -0.2966    0.0000 </r>
       <r>   -0.2111    0.0000 </r>
       <r>   -0.2102    0.0000 </r>
       <r>   -0.1972    0.0000 </r>
       <r>   -0.1674    0.0000 </r>
       <r>   -0.1646    0.0000 </r>
       <r>    0.0058    0.0000 </r>
       <r>    0.0073    0.0000 </r>
       <r>    0.1420    0.0000 </r>
       <r>    0.2927    0.0000 </r>
       <r>    0.2976    0.0000 </r>
       <r>    0.5076    0.0000 </r>
       <r>    0.5261    0.0000 </r>
       <r>    0.5271    0.0000 </r>
       <r>    0.6479    0.0000 </r>
       <r>    0.6493    0.0000 </r>
       <r>    0.7010    0.0000 </r>
       <r>    0.7024    0.0000 </r>
       <r>    0.7440    0.0000 </r>
       <r>    0.7581    0.0000 </r>
       <r>    0.8485    0.0000 </r>
       <r>    0.9409    0.0000 </r>
       <r>    0.9415    0.0000 </r>
       <r>    1.0395    0.0000 </r>
       <r>    1.0509    0.0000 </r>
       <r>    1.0523    0.0000 </r>
       <r>    1.1214    0.0000 </r>
       <r>    1.1361    0.0000 </r>
       <r>    1.1396    0.0000 </r>
       <r>    1.1933    0.0000 </r>
       <r>    1.2502    0.0000 </r>
       <r>    1.2524    0.0000 </r>
       <r>    1.2535    0.0000 </r>
       <r>    1.2912    0.0000 </r>
       <r>    1.3131    0.0000 </r>
       <r>    1.3261    0.0000 </r>
       <r>    1.3429    0.0000 </r>
       <r>    1.4096    0.0000 </r>
      </set>
      <set comment="kpoint 3">
       <r>  -25.1298    1.0000 </r>
       <r>  -25.1274    1.0000 </r>
       <r>  -25.1208    1.0000 </r>
       <r>  -25.1192    1.0000 </r>
       <r>  -25.1183    1.0000 </r>
       <r>  -25.1156    1.0000 </r>
       <r>  -21.8039    1.0000 </r>
       <r>  -21.8029    1.0000 </r>
       <r>  -21.6299    1.0000 </r>
       <r>  -21.5525    1.0000 </r>
       <r>  -21.5465    1.0000 </r>
       <r>  -21.2115    1.0000 </r>
       <r>  -20.8188    1.0000 </r>
       <r>  -20.8107    1.0000 </r>
       <r>  -20.5713    1.0000 </r>
       <r>  -20.5689    1.0000 </r>
       <r>  -20.3523    1.0000 </r>
       <r>  -20.3511    1.0000 </r>
       <r>  -20.2173    1.0000 </r>
       <r>  -20.2171    1.0000 </r>
       <r>  -20.1542    1.0000 </r>
       <r>  -19.9994    1.0000 </r>
       <r>  -19.8975    1.0000 </r>
       <r>  -19.8962    1.0000 </r>
       <r>  -19.3017    1.0000 </r>
       <r>  -18.9924    1.0000 </r>
       <r>  -18.9910    1.0000 </r>
       <r>  -18.6852    1.0000 </r>
       <r>  -18.6843    1.0000 </r>
       <r>  -18.2736    1.0000 </r>
       <r>  -18.2722    1.0000 </r>
       <r>  -18.2066    1.0000 </r>
       <r>  -17.9677    1.0000 </r>
       <r>  -17.9190    1.0000 </r>
       <r>  -17.5746    1.0000 </r>
       <r>  -17.5723    1.0000 </r>
       <r>  -16.4602    1.0000 </r>
       <r>  -16.4570    1.0000 </r>
       <r>  -16.2307    1.0000 </r>
       <r>  -16.2297    1.0000 </r>
       <r>  -16.0663    1.0000 </r>
       <r>  -16.0644    1.0000 </r>
       <r>  -16.0131    1.0000 </r>
       <r>  -16.0092    1.0000 </r>
       <r>  -15.9435    1.0000 </r>
       <r>  -15.9062    1.0000 </r>
       <r>  -15.8778    1.0000 </r>
       <r>  -15.8463    1.0000 </r>
       <r>  -15.4171    1.0000 </r>
       <r>  -15.1467    1.0000 </r>
       <r>  -15.1430    1.0000 </r>
       <r>  -15.1379    1.0000 </r>
       <r>  -14.5050    1.0000 </r>
       <r>  -14.4910    1.0000 </r>
       <r>  -14.3870    1.0000 </r>
       <r>  -14.1044    1.0000 </r>
       <r>  -14.0198    1.0000 </r>
       <r>  -14.0192    1.0000 </r>
       <r>  -13.9828    1.0000 </r>
       <r>  -13.9817    1.0000 </r>
       <r>  -13.3071    1.0000 </r>
       <r>  -13.1574    1.0000 </r>
       <r>  -13.1562    1.0000 </r>
       <r>  -12.6546    1.0000 </r>
       <r>  -12.5627    1.0000 </r>
       <r>  -12.5607    1.0000 </r>
       <r>  -12.4284    1.0000 </r>
       <r>  -12.4278    1.0000 </r>
       <r>  -12.3731    1.0000 </r>
       <r>  -12.2005    1.0000 </r>
       <r>  -12.1992    1.0000 </r>
       <r>  -12.1710    1.0000 </r>
       <r>  -12.1421    1.0000 </r>
       <r>  -12.0477    1.0000 </r>
       <r>  -12.0468    1.0000 </r>
       <r>  -11.6878    1.0000 </r>
       <r>  -11.6877    1.0000 </r>
       <r>  -11.6239    1.0000 </r>
       <r>  -11.5794    1.0000 </r>
       <r>  -11.5785    1.0000 </r>
       <r>  -11.5046    1.0000 </r>
       <r>  -11.4147    1.0000 </r>
       <r>  -11.4091    1.0000 </r>
       <r>  -11.1048    1.0000 </r>
       <r>  -11.1038    1.0000 </r>
       <r>  -10.7809    1.0000 </r>
       <r>  -10.7449    1.0000 </r>
       <r>  -10.7394    1.0000 </r>
       <r>  -10.7196    1.0000 </r>
       <r>  -10.5613    1.0000 </r>
       <r>  -10.4088    1.0000 </r>
       <r>  -10.3175    1.0000 </r>
       <r>  -10.2882    1.0000 </r>
       <r>  -10.2582    1.0000 </r>
       <r>  -10.2574    1.0000 </r>
[...]
       <r>   -22.6555     0.0000    12.0000 </r>
       <r>   -22.5580     0.0000    12.0000 </r>
       <r>   -22.4604     0.0000    12.0000 </r>
       <r>   -22.3629     0.0000    12.0000 </r>
       <r>   -22.2653     0.0000    12.0000 </r>
       <r>   -22.1678     0.0000    12.0000 </r>
       <r>   -22.0702     0.0000    12.0000 </r>
       <r>   -21.9727     0.0000    12.0000 </r>
       <r>   -21.8751     0.0000    12.0000 </r>
       <r>   -21.7776    30.5047    14.9758 </r>
       <r>   -21.6800    17.2033    17.3786 </r>
       <r>   -21.5825     5.1216    18.0000 </r>
       <r>   -21.4849    26.6460    20.5994 </r>
       <r>   -21.3874     9.5481    21.6315 </r>
       <r>   -21.2898    12.6875    23.0713 </r>
       <r>   -21.1923     8.1882    23.9989 </r>
       <r>   -21.0947     0.0000    24.0000 </r>
       <r>   -20.9972     0.0000    24.0000 </r>
       <r>   -20.8996     0.0000    24.0000 </r>
       <r>   -20.8021    39.1436    27.8185 </r>
       <r>   -20.7045     0.0000    28.0000 </r>
       <r>   -20.6070     0.0000    28.0000 </r>
       <r>   -20.5094    28.6903    30.7988 </r>
       <r>   -20.4119    14.7755    32.3749 </r>
       <r>   -20.3143    31.4341    36.0000 </r>
       <r>   -20.2168    17.5241    37.7095 </r>
       <r>   -20.1192    22.5430    42.0000 </r>
       <r>   -20.0217     0.0034    42.0003 </r>
       <r>   -19.9241    34.5902    45.3746 </r>
       <r>   -19.8266    24.2576    48.0000 </r>
       <r>   -19.7290     0.0000    48.0000 </r>
       <r>   -19.6315     0.0000    48.0000 </r>
       <r>   -19.5339     0.0000    48.0000 </r>
       <r>   -19.4364     0.0000    48.0000 </r>
       <r>   -19.3388     0.0000    48.0000 </r>
       <r>   -19.2413     7.0661    48.6893 </r>
       <r>   -19.1437     9.9252    49.7682 </r>
       <r>   -19.0461    11.9533    51.2328 </r>
       <r>   -18.9486    24.5924    54.0000 </r>
       <r>   -18.8510     0.0000    54.0000 </r>
       <r>   -18.7535     0.0000    54.0000 </r>
       <r>   -18.6559    11.0233    55.0753 </r>
       <r>   -18.5584    17.9840    57.1545 </r>
       <r>   -18.4608     9.7097    59.0141 </r>
       <r>   -18.3633    15.0107    60.5311 </r>
       <r>   -18.2657    11.7203    61.8770 </r>
       <r>   -18.1682     5.1276    62.5002 </r>
       <r>   -18.0706    12.1608    63.8198 </r>
       <r>   -17.9731    12.0135    65.2720 </r>
       <r>   -17.8755    10.7363    66.6477 </r>
       <r>   -17.7780     7.0282    67.4189 </r>
       <r>   -17.6804     7.0202    68.2516 </r>
       <r>   -17.5829    12.7869    69.6476 </r>
       <r>   -17.4853    16.7399    72.0000 </r>
       <r>   -17.3878     0.0000    72.0000 </r>
       <r>   -17.2902     0.0000    72.0000 </r>
       <r>   -17.1927     0.0000    72.0000 </r>
       <r>   -17.0951     0.0000    72.0000 </r>
       <r>   -16.9976     0.0000    72.0000 </r>
       <r>   -16.9000     0.0000    72.0000 </r>
       <r>   -16.8025     0.0000    72.0000 </r>
       <r>   -16.7049     0.0000    72.0000 </r>
       <r>   -16.6074     0.0000    72.0000 </r>
       <r>   -16.5098     0.0009    72.0001 </r>
       <r>   -16.4123    28.5444    74.7846 </r>
       <r>   -16.3147    12.5974    76.1624 </r>
       <r>   -16.2172    25.4366    78.8815 </r>
       <r>   -16.1196    26.7011    82.6047 </r>
       <r>   -16.0221    21.5964    85.3405 </r>
       <r>   -15.9245    17.0910    87.9007 </r>
       <r>   -15.8270    77.1915    95.9985 </r>
       <r>   -15.7294     0.0000    96.0000 </r>
       <r>   -15.6319     0.0000    96.0000 </r>
       <r>   -15.5343     0.0000    96.0000 </r>
       <r>   -15.4368     0.0094    96.0009 </r>
       <r>   -15.3392     9.6269    96.9400 </r>
       <r>   -15.2416    14.6857    98.5330 </r>
       <r>   -15.1441    22.5406   101.1656 </r>
       <r>   -15.0465     4.5943   102.7483 </r>
       <r>   -14.9490     6.9529   103.4785 </r>
       <r>   -14.8514     5.7347   104.1929 </r>
       <r>   -14.7539     7.4323   105.0251 </r>
       <r>   -14.6563     2.8145   105.3413 </r>
       <r>   -14.5588     2.4942   105.6433 </r>
       <r>   -14.4612    23.5711   107.9994 </r>
       <r>   -14.3637     2.7201   108.2653 </r>
       <r>   -14.2661     3.5254   108.6774 </r>
       <r>   -14.1686     9.3443   109.6782 </r>
       <r>   -14.0710    32.7501   113.3953 </r>
       <r>   -13.9735    33.9731   117.2814 </r>
       <r>   -13.8759    20.1533   120.0000 </r>
       <r>   -13.7784     0.0000   120.0000 </r>
       <r>   -13.6808     0.0000   120.0000 </r>
       <r>   -13.5833     0.0000   120.0000 </r>
       <r>   -13.4857     0.0000   120.0000 </r>
       <r>   -13.3882     0.0000   120.0000 </r>
       <r>   -13.2906     6.6457   120.6483 </r>
       <r>   -13.1931    23.2336   123.2335 </r>
       <r>   -13.0955    26.3062   126.0000 </r>
       <r>   -12.9980     0.0000   126.0000 </r>
       <r>   -12.9004     0.0000   126.0000 </r>
       <r>   -12.8029     0.0000   126.0000 </r>
       <r>   -12.7053     0.0000   126.0000 </r>
       <r>   -12.6078     7.6506   126.7463 </r>
       <r>   -12.5102    41.5372   131.2524 </r>
       <r>   -12.4127    49.5747   136.8364 </r>
       <r>   -12.3151     6.8308   138.0000 </r>
       <r>   -12.2176     2.8394   138.2770 </r>
       <r>   -12.1200    45.4842   144.6418 </r>
       <r>   -12.0225    51.5922   149.9999 </r>
       <r>   -11.9249     0.0000   150.0000 </r>
       <r>   -11.8274     0.0000   150.0000 </r>
       <r>   -11.7298     0.0000   150.0000 </r>
       <r>   -11.6322    40.6137   153.9619 </r>
       <r>   -11.5347    59.6852   161.5231 </r>
       <r>   -11.4371    15.3669   163.1991 </r>
       <r>   -11.3396    11.1941   164.7259 </r>
       <r>   -11.2420    11.1043   165.9500 </r>
       <r>   -11.1445    11.7654   167.3147 </r>
       <r>   -11.0469    25.6266   170.0000 </r>
       <r>   -10.9494     0.0000   170.0000 </r>
       <r>   -10.8518     0.0000   170.0000 </r>
       <r>   -10.7543    30.6101   172.9861 </r>
       <r>   -10.6567    28.0365   176.7360 </r>
       <r>   -10.5592    15.8796   178.3825 </r>
       <r>   -10.4616    16.3511   180.4955 </r>
       <r>   -10.3641    22.2274   183.2020 </r>
       <r>   -10.2665    50.0856   188.2527 </r>
       <r>   -10.1690     1.5750   190.1536 </r>
       <r>   -10.0714    74.8472   198.5387 </r>
       <r>    -9.9739    26.5992   204.0000 </r>
       <r>    -9.8763     7.9778   204.7782 </r>
       <r>    -9.7788    22.2419   207.2365 </r>
       <r>    -9.6812    38.7578   212.0485 </r>
       <r>    -9.5837    35.2215   217.7070 </r>
       <r>    -9.4861    36.9538   221.6718 </r>
       <r>    -9.3886    13.0497   223.2730 </r>
       <r>    -9.2910    34.7840   227.2296 </r>
       <r>    -9.1935     5.1240   228.0000 </r>
       <r>    -9.0959     0.0000   228.0000 </r>
       <r>    -8.9984     0.0000   228.0000 </r>
       <r>    -8.9008     0.0000   228.0000 </r>
       <r>    -8.8033    30.2501   230.9509 </r>
       <r>    -8.7057    37.5895   235.3008 </r>
       <r>    -8.6082    10.5776   240.0000 </r>
       <r>    -8.5106     0.0000   240.0000 </r>
       <r>    -8.4131    58.1867   245.6762 </r>
       <r>    -8.3155    28.0640   248.7377 </r>
       <r>    -8.2180     5.7890   252.0000 </r>
       <r>    -8.1204     0.5012   252.0489 </r>
       <r>    -8.0229    31.5238   255.8768 </r>
       <r>    -7.9253    17.0124   257.9265 </r>
       <r>    -7.8277     0.0000   258.0000 </r>
       <r>    -7.7302     0.0000   258.0000 </r>
       <r>    -7.6326     0.0000   258.0000 </r>
       <r>    -7.5351     0.0000   258.0000 </r>
       <r>    -7.4375    61.5061   264.0000 </r>
       <r>    -7.3400    81.8658   271.9861 </r>
       <r>    -7.2424    14.3259   273.3975 </r>
       <r>    -7.1449    53.2123   279.8254 </r>
       <r>    -7.0473    17.6062   282.0849 </r>
       <r>    -6.9498    41.6982   287.4685 </r>
       <r>    -6.8522    31.4454   291.6350 </r>
       <r>    -6.7547    17.7627   294.0000 </r>
       <r>    -6.6571     0.0000   294.0000 </r>
       <r>    -6.5596     7.4824   294.7299 </r>
       <r>    -6.4620    18.8345   296.7040 </r>
       <r>    -6.3645    28.1493   299.7129 </r>
       <r>    -6.2669     0.0000   300.0000 </r>
       <r>    -6.1694     0.0000   300.0000 </r>
       <r>    -6.0718    11.8451   301.1555 </r>
       <r>    -5.9743    26.3854   304.0743 </r>
       <r>    -5.8767    28.3028   307.4618 </r>
       <r>    -5.7792     0.0417   308.0041 </r>
       <r>    -5.6816    18.5342   310.0084 </r>
       <r>    -5.5841    14.6848   312.0000 </r>
       <r>    -5.4865     0.0000   312.0000 </r>
       <r>    -5.3890     0.0000   312.0000 </r>
       <r>    -5.2914    44.3905   316.3304 </r>
       <r>    -5.1939     0.0000   318.0000 </r>
       <r>    -5.0963     0.0000   318.0000 </r>
       <r>    -4.9988     0.0000   318.0000 </r>
       <r>    -4.9012     0.0000   318.0000 </r>
       <r>    -4.8037     0.0003   318.0000 </r>
       <r>    -4.7061   120.6898   329.7735 </r>
       <r>    -4.6086     0.0000   330.0000 </r>
       <r>    -4.5110     0.0000   330.0000 </r>
       <r>    -4.4135     0.0000   330.0000 </r>
       <r>    -4.3159     0.0000   330.0000 </r>
       <r>    -4.2183     0.0000   330.0000 </r>
       <r>    -4.1208     0.0000   330.0000 </r>
       <r>    -4.0232     0.0000   330.0000 </r>
       <r>    -3.9257     0.0000   330.0000 </r>
       <r>    -3.8281     0.0000   330.0000 </r>
       <r>    -3.7306     0.0000   330.0000 </r>
       <r>    -3.6330     0.0000   330.0000 </r>
       <r>    -3.5355     0.0000   330.0000 </r>
       <r>    -3.4379     0.0000   330.0000 </r>
       <r>    -3.3404     0.0000   330.0000 </r>
       <r>    -3.2428     0.0000   330.0000 </r>
       <r>    -3.1453     0.0000   330.0000 </r>
       <r>    -3.0477     0.0000   330.0000 </r>
       <r>    -2.9502     0.0000   330.0000 </r>
       <r>    -2.8526     0.0000   330.0000 </r>
       <r>    -2.7551     0.0000   330.0000 </r>
       <r>    -2.6575     0.0000   330.0000 </r>
       <r>    -2.5600     0.0000   330.0000 </r>
       <r>    -2.4624     0.0000   330.0000 </r>
       <r>    -2.3649     0.0000   330.0000 </r>
       <r>    -2.2673     7.2807   330.7102 </r>
       <r>    -2.1698    33.1189   336.0000 </r>
       <r>    -2.0722    64.9703   342.3379 </r>
       <r>    -1.9747    22.5836   345.1698 </r>
       <r>    -1.8771    82.2472   353.3570 </r>
       <r>    -1.7796    14.8593   356.5165 </r>
       <r>    -1.6820    14.0284   358.0353 </r>
       <r>    -1.5845    16.9490   359.9872 </r>
       <r>    -1.4869     0.0000   360.0000 </r>
       <r>    -1.3894     0.0000   360.0000 </r>
       <r>    -1.2918     0.0000   360.0000 </r>
       <r>    -1.1943     5.8677   360.5724 </r>
       <r>    -1.0967     8.6885   361.5476 </r>
       <r>    -0.9992     7.5858   362.4734 </r>
       <r>    -0.9016     5.9698   363.2827 </r>
       <r>    -0.8041     3.2395   363.6827 </r>
       <r>    -0.7065     3.1133   364.0704 </r>
       <r>    -0.6089    18.3813   366.4936 </r>
       <r>    -0.5114     3.8734   366.9445 </r>
       <r>    -0.4138    33.5011   370.3016 </r>
       <r>    -0.3163    36.2304   374.1011 </r>
       <r>    -0.2187    24.2107   377.2292 </r>
       <r>    -0.1212    27.7642   381.4757 </r>
       <r>    -0.0236    18.0086   383.7906 </r>
       <r>     0.0739    32.4402   387.1646 </r>
       <r>     0.1715    20.1611   389.7675 </r>
       <r>     0.2690    11.9986   391.1706 </r>
       <r>     0.3666    26.7988   394.3814 </r>
       <r>     0.4641     8.7962   395.3917 </r>
       <r>     0.5617    53.4604   400.7152 </r>
       <r>     0.6592    32.1535   404.8705 </r>
       <r>     0.7568    21.6979   407.2167 </r>
       <r>     0.8543    47.3571   412.7556 </r>
       <r>     0.9519    29.7559   415.9028 </r>
       <r>     1.0494    41.7239   420.7710 </r>
       <r>     1.1470    53.5148   427.3541 </r>
       <r>     1.2445    57.5382   434.4477 </r>
       <r>     1.3421    59.1643   441.7393 </r>
       <r>     1.4396    36.2830   446.3402 </r>
       <r>     1.5372     5.1190   448.0000 </r>
       <r>     1.6347     0.0000   448.0000 </r>
       <r>     1.7323     0.0000   448.0000 </r>
       <r>     1.8298     0.0000   448.0000 </r>
       <r>     1.9274     0.0000   448.0000 </r>
       <r>     2.0249     0.0000   448.0000 </r>
       <r>     2.1225     0.0000   448.0000 </r>
       <r>     2.2200     0.0000   448.0000 </r>
       <r>     2.3176     0.0000   448.0000 </r>
       <r>     2.4151     0.0000   448.0000 </r>
       <r>     2.5127     0.0000   448.0000 </r>
       <r>     2.6102     0.0000   448.0000 </r>
       <r>     2.7078     0.0000   448.0000 </r>
       <r>     2.8053     0.0000   448.0000 </r>
      </set>
     </set>
    </array>
   </total>
  </dos>
 </calculation>
 <structure name="finalpos" >
  <crystal>
   <varray name="basis" >
    <v>      23.09146589      -0.00121927       0.00000000 </v>
    <v>     -11.54678883      20.00134124       0.00000000 </v>
    <v>       0.00000000       0.00000000      20.00000000 </v>
   </varray>
   <i name="volume">   9236.92420894 </i>
   <varray name="rec_basis" >
    <v>       0.04330736       0.02500137       0.00000000 </v>
    <v>       0.00000264       0.04999817       0.00000000 </v>
    <v>       0.00000000       0.00000000       0.05000000 </v>
   </varray>
  </crystal>
  <varray name="positions" >
   <v>       0.52702333       0.25136670       0.45554896 </v>
   <v>       0.52698423       0.30854722       0.45560203 </v>
   <v>       0.78979125       0.30877544       0.45547460 </v>
   <v>       0.73261896       0.25154600       0.45535878 </v>
   <v>       0.73268915       0.51430622       0.45569767 </v>
   <v>       0.78982370       0.51414969       0.45574097 </v>
   <v>       0.30007614       0.53473327       0.45531268 </v>
   <v>       0.24292167       0.53489125       0.45535790 </v>
   <v>       0.50520118       0.74041518       0.45571529 </v>
   <v>       0.24325306       0.74077130       0.45565586 </v>
   <v>       0.50530417       0.79766180       0.45565210 </v>
   <v>       0.30040151       0.79807417       0.45558119 </v>
   <v>       0.53518572       0.06202063       0.53253592 </v>
   <v>       0.60410711       0.19991826       0.50603590 </v>
   <v>       0.53477718       0.16671772       0.51525109 </v>
   <v>       0.50086207       0.09821838       0.52887252 </v>
   <v>       0.50566756       0.32744861       0.51014547 </v>
   <v>       0.46884815       0.28098287       0.56026814 </v>
   <v>       0.46881046       0.22064328       0.56019024 </v>
   <v>       0.50561863       0.21104637       0.51001539 </v>
   <v>       0.71374528       0.21112096       0.50977711 </v>
   <v>       0.76018241       0.22066736       0.55989229 </v>
   <v>       0.82049963       0.28101555       0.55998279 </v>
   <v>       0.83011021       0.32755246       0.50996511 </v>
   <v>       0.60570094       0.09820996       0.52866668 </v>
   <v>       0.64026373       0.16673100       0.51508436 </v>
   <v>       0.49767639       0.54320221       0.53272558 </v>
   <v>       0.42716007       0.50880425       0.52887399 </v>
   <v>       0.39252052       0.54267350       0.51524090 </v>
   <v>       0.53509179       0.50597995       0.53276928 </v>
   <v>       0.60418521       0.43711663       0.50634910 </v>
   <v>       0.64025514       0.50645138       0.51549879 </v>
   <v>       0.60562010       0.54034197       0.52905363 </v>
   <v>       0.05385670       0.54340437       0.53278979 </v>
   <v>       0.97921580       0.50609878       0.53280103 </v>
   <v>       0.84127349       0.43716859       0.50637923 </v>
   <v>       0.87446780       0.40102472       0.51541477 </v>
   <v>       0.94300553       0.43559388       0.52897325 </v>
   <v>       0.83013305       0.53560089       0.51023736 </v>
   <v>       0.82053618       0.57246082       0.56035427 </v>
   <v>       0.76017649       0.57240990       0.56039405 </v>
   <v>       0.71375884       0.53564887       0.51021592 </v>
   <v>       0.20277404       0.51372001       0.50997258 </v>
   <v>       0.21241628       0.47700572       0.56020019 </v>
   <v>       0.27268776       0.47689417       0.56016780 </v>
   <v>       0.31903117       0.51350267       0.50989250 </v>
   <v>       0.50084645       0.43547341       0.52900608 </v>
   <v>       0.53483813       0.40094193       0.51545474 </v>
   <v>       0.15854157       0.54297238       0.51536344 </v>
   <v>       0.09003166       0.50907419       0.52897182 </v>
   <v>       0.94301690       0.54042371       0.52912383 </v>
   <v>       0.87449037       0.50648636       0.51554651 </v>
   <v>       0.42857483       0.61201040       0.50621522 </v>
   <v>       0.09010105       0.61391299       0.52908024 </v>
   <v>       0.15861834       0.64844573       0.51547875 </v>
   <v>       0.19180278       0.61230420       0.50628238 </v>
   <v>       0.52694496       0.72169179       0.51009324 </v>
   <v>       0.56407080       0.76827040       0.56001685 </v>
   <v>       0.21241545       0.76840455       0.56015762 </v>
   <v>       0.20291959       0.72192204       0.51011247 </v>
   <v>       0.49790184       0.64822570       0.51543308 </v>
   <v>       0.53191824       0.61371607       0.52902092 </v>
   <v>       0.49782568       0.98738442       0.53259599 </v>
   <v>       0.53209922       0.95113411       0.52886063 </v>
   <v>       0.49807135       0.88259324       0.51539096 </v>
   <v>       0.42872361       0.84944859       0.50635517 </v>
   <v>       0.56412500       0.82862068       0.55999016 </v>
   <v>       0.52708531       0.83814466       0.51002299 </v>
   <v>       0.31918319       0.83839957       0.51005216 </v>
   <v>       0.27270021       0.82877021       0.56014281 </v>
   <v>       0.39266006       0.88273023       0.51539428 </v>
   <v>       0.42730090       0.95124889       0.52887914 </v>
   <v>       0.63049551       0.25275922       0.49295613 </v>
   <v>       0.44659727       0.07256366       0.53329538 </v>
   <v>       0.44542514       0.18441012       0.60053045 </v>
   <v>       0.44549390       0.29375945       0.60069098 </v>
   <v>       0.85664727       0.29377681       0.60040263 </v>
   <v>       0.74735954       0.18443655       0.60023055 </v>
   <v>       0.63428909       0.07252505       0.53288739 </v>
   <v>       0.39862348       0.45453838       0.53312967 </v>
   <v>       0.63067981       0.41075413       0.49327161 </v>
   <v>       0.78841453       0.41077211       0.49332771 </v>
   <v>       0.96868766       0.40699976       0.53313979 </v>
   <v>       0.74734205       0.59572457       0.60082271 </v>
   <v>       0.85670443       0.59578849       0.60076513 </v>
   <v>       0.28558752       0.45368020       0.60063857 </v>
   <v>       0.17632762       0.45387572       0.60069398 </v>
   <v>       0.44657521       0.40681575       0.53329336 </v>
   <v>       0.06434555       0.45480742       0.53322028 </v>
   <v>       0.40210970       0.63838880       0.49311951 </v>
   <v>       0.63418923       0.59461411       0.53330710 </v>
   <v>       0.06446459       0.64254178       0.53339489 </v>
   <v>       0.24465215       0.63870739       0.49317374 </v>
   <v>       0.58763428       0.75554322       0.60028766 </v>
   <v>       0.17621151       0.75560023       0.60052731 </v>
   <v>       0.58619516       0.64237168       0.53330173 </v>
   <v>       0.96869624       0.59468397       0.53349747 </v>
   <v>       0.58638470       0.97678092       0.53307457 </v>
   <v>       0.40224003       0.79657988       0.49338212 </v>
   <v>       0.58770165       0.86489612       0.60026178 </v>
   <v>       0.28546832       0.86494656       0.60052232 </v>
   <v>       0.39877655       0.97699808       0.53309372 </v>
  </varray>
 </structure>
</modeling>
