<?xml version="1.0" encoding="ISO-8859-1"?>
<modeling>
 <generator>
  <i name="program" type="string">vasp </i>
  <i name="version" type="string">5.4.4.18Apr17-6-g9f103f2a35  </i>
  <i name="subversion" type="string">(build Jun 07 2020 16:50:00) complex            parallel </i>
  <i name="platform" type="string">LinuxIFC </i>
  <i name="date" type="string">2023 02 28 </i>
  <i name="time" type="string">23:00:19 </i>
 </generator>
 <incar>
  <i type="string" name="SYSTEM">Simulation for cell shape cell volume r</i>
  <i type="int" name="ISTART">     1</i>
  <i type="string" name="PREC">high</i>
  <i type="string" name="ALGO">48</i>
  <i type="int" name="ICHARG">    11</i>
  <i type="int" name="NELM">   200</i>
  <i type="int" name="IBRION">    -1</i>
  <i name="EDIFF">      0.00001000</i>
  <i name="EDIFFG">     -0.01000000</i>
  <i type="int" name="NSW">     0</i>
  <i type="int" name="ISIF">     2</i>
  <i name="ENCUT">    500.00000000</i>
  <i name="POTIM">      0.30000000</i>
  <i type="string" name="LREAL">A</i>
  <i type="int" name="ISMEAR">     0</i>
  <i name="SIGMA">      0.01000000</i>
  <i type="int" name="NWRITE">     0</i>
  <i type="logical" name="LWAVE"> F  </i>
  <i type="logical" name="LCHARG"> F  </i>
  <v type="int" name="KPOINT_BSE">    -1     0     0     0</v>
  <i type="int" name="NELM">   200</i>
  <i type="string" name="GGA">PE</i>
 </incar>
 <structure name="primitive_cell" >
  <crystal>
   <varray name="basis" >
    <v>      21.68726421       0.00000001       0.00000000 </v>
    <v>     -10.84363211      18.78172174       0.00000000 </v>
    <v>       0.00000000       0.00000000      20.00000000 </v>
   </varray>
   <i name="volume">   8146.48323516 </i>
   <varray name="rec_basis" >
    <v>       0.04611001       0.02662163       0.00000000 </v>
    <v>      -0.00000000       0.05324325       0.00000000 </v>
    <v>       0.00000000       0.00000000       0.05000000 </v>
   </varray>
  </crystal>
  <varray name="positions" >
   <v>      -0.32747265      -0.04671030      -0.41436257 </v>
   <v>      -0.32507584      -0.01194334      -0.44685413 </v>
   <v>      -0.28999696      -0.01346482       0.49699905 </v>
   <v>      -0.25670579      -0.06004144       0.49956362 </v>
   <v>      -0.29405626      -0.13476366      -0.49200326 </v>
   <v>      -0.37267195      -0.17707956      -0.48798149 </v>
   <v>      -0.40834843      -0.14970888       0.48043695 </v>
   <v>      -0.28103250       0.02582249       0.45031875 </v>
   <v>      -0.18283583      -0.02599827       0.49240470 </v>
   <v>      -0.40779288      -0.24419565      -0.45599608 </v>
   <v>      -0.47921498      -0.18720232       0.47869026 </v>
   <v>      -0.15222573       0.03140835       0.48471736 </v>
   <v>      -0.33230882      -0.22629444      -0.36341763 </v>
   <v>      -0.26073705      -0.17310263      -0.49017977 </v>
   <v>       0.49356477      -0.16201391       0.45506707 </v>
   <v>      -0.14808958      -0.06558786       0.49583113 </v>
   <v>      -0.37204246      -0.27327415      -0.41264184 </v>
   <v>      -0.19022549      -0.13973460      -0.49538346 </v>
   <v>      -0.48139841      -0.28547124      -0.46335345 </v>
   <v>       0.48152192      -0.25675640      -0.49580390 </v>
   <v>      -0.31198656      -0.25002450      -0.33717650 </v>
   <v>       0.48996715      -0.33880498      -0.44191545 </v>
   <v>      -0.16514027      -0.17251169      -0.49254064 </v>
   <v>      -0.38209417      -0.33363505      -0.41635056 </v>
   <v>      -0.06970277      -0.03083812       0.49279601 </v>
   <v>       0.40306618      -0.29736517      -0.49965862 </v>
   <v>      -0.03234181       0.04072858       0.49264022 </v>
   <v>       0.36883524      -0.26001012      -0.49989925 </v>
   <v>      -0.00737142       0.16514027      -0.49254064 </v>
   <v>       0.33880498      -0.17122787      -0.44191545 </v>
   <v>      -0.04072858      -0.07307038       0.49264022 </v>
   <v>       0.37115464      -0.36883524      -0.49989925 </v>
   <v>       0.03886465       0.06970277       0.49279601 </v>
   <v>       0.33363505      -0.04845912      -0.41635056 </v>
   <v>       0.05049089       0.19022549      -0.49538346 </v>
   <v>       0.29736517      -0.29956864      -0.49965862 </v>
   <v>       0.28547124      -0.19592717      -0.46335345 </v>
   <v>       0.03083812      -0.03886465       0.49279601 </v>
   <v>       0.08250172       0.14808958       0.49583113 </v>
   <v>       0.25675640      -0.26172168      -0.49580390 </v>
   <v>       0.29956864      -0.40306618      -0.49965862 </v>
   <v>       0.27327415      -0.09876831      -0.41264184 </v>
   <v>       0.07307038       0.03234181       0.49264022 </v>
   <v>       0.08763442       0.26073705      -0.49017977 </v>
   <v>       0.06196205       0.31198656      -0.33717650 </v>
   <v>       0.26001012      -0.37115464      -0.49989925 </v>
   <v>       0.24419565      -0.16359723      -0.45599608 </v>
   <v>      -0.03140835      -0.18363408       0.48471736 </v>
   <v>       0.04845912       0.38209417      -0.41635056 </v>
   <v>       0.10601438       0.33230882      -0.36341763 </v>
   <v>       0.34442132      -0.49356477       0.45506707 </v>
   <v>       0.06558786      -0.08250172       0.49583113 </v>
   <v>       0.25002450      -0.06196205      -0.33717650 </v>
   <v>       0.22629444      -0.10601438      -0.36341763 </v>
   <v>       0.09876831       0.37204246      -0.41264184 </v>
   <v>       0.02599827      -0.15683756       0.49240470 </v>
   <v>       0.15683756       0.18283583       0.49240470 </v>
   <v>       0.26172168      -0.48152192      -0.49580390 </v>
   <v>       0.18720232      -0.29201265       0.47869026 </v>
   <v>       0.15929260       0.29405626      -0.49200326 </v>
   <v>       0.17707956      -0.19559239      -0.48798149 </v>
   <v>       0.29201265       0.47921498       0.47869026 </v>
   <v>       0.18363408       0.15222573       0.48471736 </v>
   <v>       0.16201391      -0.34442132       0.45506707 </v>
   <v>       0.19666435       0.25670579       0.49956362 </v>
   <v>       0.14970888      -0.25863955       0.48043695 </v>
   <v>       0.13973460      -0.05049089      -0.49538346 </v>
   <v>       0.16359723       0.40779288      -0.45599608 </v>
   <v>       0.17122787      -0.48996715      -0.44191545 </v>
   <v>       0.19592717       0.48139841      -0.46335345 </v>
   <v>       0.17251169       0.00737142      -0.49254064 </v>
   <v>       0.19559239       0.37267195      -0.48798149 </v>
   <v>       0.17310263      -0.08763442      -0.49017977 </v>
   <v>       0.06004144      -0.19666435       0.49956362 </v>
   <v>       0.13476366      -0.15929260      -0.49200326 </v>
   <v>       0.25863955       0.40834843       0.48043695 </v>
   <v>      -0.02582249      -0.30685498       0.45031875 </v>
   <v>       0.01346482      -0.27653213       0.49699905 </v>
   <v>       0.01194334      -0.31313250      -0.44685413 </v>
   <v>       0.27653213       0.28999696       0.49699905 </v>
   <v>       0.28076235       0.32747265      -0.41436257 </v>
   <v>       0.04671030      -0.28076235      -0.41436257 </v>
   <v>       0.31313250       0.32507584      -0.44685413 </v>
   <v>       0.30685498       0.28103250       0.45031875 </v>
  </varray>
 </structure>
 <varray name="primitive_index" >
  <v type="int" >        1 </v>
  <v type="int" >       74 </v>
  <v type="int" >       32 </v>
  <v type="int" >       33 </v>
  <v type="int" >       31 </v>
  <v type="int" >       59 </v>
  <v type="int" >       30 </v>
  <v type="int" >       73 </v>
  <v type="int" >       35 </v>
  <v type="int" >       60 </v>
  <v type="int" >       72 </v>
  <v type="int" >       17 </v>
  <v type="int" >       80 </v>
  <v type="int" >       19 </v>
  <v type="int" >       18 </v>
  <v type="int" >       62 </v>
  <v type="int" >       63 </v>
  <v type="int" >       34 </v>
  <v type="int" >       61 </v>
  <v type="int" >       58 </v>
  <v type="int" >       10 </v>
  <v type="int" >        8 </v>
  <v type="int" >        9 </v>
  <v type="int" >       79 </v>
  <v type="int" >       37 </v>
  <v type="int" >       40 </v>
  <v type="int" >       20 </v>
  <v type="int" >       24 </v>
  <v type="int" >        6 </v>
  <v type="int" >        2 </v>
  <v type="int" >       21 </v>
  <v type="int" >       23 </v>
  <v type="int" >       36 </v>
  <v type="int" >       75 </v>
  <v type="int" >       56 </v>
  <v type="int" >       41 </v>
  <v type="int" >       45 </v>
  <v type="int" >       38 </v>
  <v type="int" >       55 </v>
  <v type="int" >       42 </v>
  <v type="int" >       39 </v>
  <v type="int" >       49 </v>
  <v type="int" >       22 </v>
  <v type="int" >       27 </v>
  <v type="int" >        7 </v>
  <v type="int" >       25 </v>
  <v type="int" >       44 </v>
  <v type="int" >       11 </v>
  <v type="int" >       77 </v>
  <v type="int" >       78 </v>
  <v type="int" >       15 </v>
  <v type="int" >       47 </v>
  <v type="int" >        4 </v>
  <v type="int" >       76 </v>
  <v type="int" >       57 </v>
  <v type="int" >       66 </v>
  <v type="int" >       70 </v>
  <v type="int" >       50 </v>
  <v type="int" >       64 </v>
  <v type="int" >       54 </v>
  <v type="int" >       43 </v>
  <v type="int" >       68 </v>
  <v type="int" >       14 </v>
  <v type="int" >       12 </v>
  <v type="int" >       69 </v>
  <v type="int" >       28 </v>
  <v type="int" >       48 </v>
  <v type="int" >       52 </v>
  <v type="int" >        5 </v>
  <v type="int" >       53 </v>
  <v type="int" >        3 </v>
  <v type="int" >       51 </v>
  <v type="int" >       26 </v>
  <v type="int" >       65 </v>
  <v type="int" >       46 </v>
  <v type="int" >       29 </v>
  <v type="int" >       81 </v>
  <v type="int" >       67 </v>
  <v type="int" >       82 </v>
  <v type="int" >       71 </v>
  <v type="int" >       16 </v>
  <v type="int" >       13 </v>
  <v type="int" >       84 </v>
  <v type="int" >       83 </v>
 </varray>
 <kpoints>
  <generation param="listgenerated">
   <i name="divisions" type="int">      20 </i>
   <v>       0.00000000       0.00000000       0.00000000 </v>
   <v>       0.50000000       0.00000000       0.00000000 </v>
   <v>       0.33333333       0.33333333       0.00000000 </v>
   <v>       0.00000000       0.00000000       0.00000000 </v>
  </generation>
  <varray name="kpointlist" >
   <v>       0.00000000       0.00000000       0.00000000 </v>
   <v>       0.02631579       0.00000000       0.00000000 </v>
   <v>       0.05263158       0.00000000       0.00000000 </v>
   <v>       0.07894737       0.00000000       0.00000000 </v>
   <v>       0.10526316       0.00000000       0.00000000 </v>
   <v>       0.13157895       0.00000000       0.00000000 </v>
   <v>       0.15789474       0.00000000       0.00000000 </v>
   <v>       0.18421053       0.00000000       0.00000000 </v>
   <v>       0.21052632       0.00000000       0.00000000 </v>
   <v>       0.23684211       0.00000000       0.00000000 </v>
   <v>       0.26315789       0.00000000       0.00000000 </v>
   <v>       0.28947368       0.00000000       0.00000000 </v>
   <v>       0.31578947       0.00000000       0.00000000 </v>
   <v>       0.34210526       0.00000000       0.00000000 </v>
   <v>       0.36842105       0.00000000       0.00000000 </v>
   <v>       0.39473684       0.00000000       0.00000000 </v>
   <v>       0.42105263       0.00000000       0.00000000 </v>
   <v>       0.44736842       0.00000000       0.00000000 </v>
   <v>       0.47368421       0.00000000       0.00000000 </v>
   <v>       0.50000000       0.00000000       0.00000000 </v>
   <v>       0.50000000       0.00000000       0.00000000 </v>
   <v>       0.49122807       0.01754386       0.00000000 </v>
   <v>       0.48245614       0.03508772       0.00000000 </v>
   <v>       0.47368421       0.05263158       0.00000000 </v>
   <v>       0.46491228       0.07017544       0.00000000 </v>
   <v>       0.45614035       0.08771930       0.00000000 </v>
   <v>       0.44736842       0.10526316       0.00000000 </v>
   <v>       0.43859649       0.12280702       0.00000000 </v>
   <v>       0.42982456       0.14035088       0.00000000 </v>
   <v>       0.42105263       0.15789474       0.00000000 </v>
   <v>       0.41228070       0.17543860       0.00000000 </v>
   <v>       0.40350877       0.19298246       0.00000000 </v>
   <v>       0.39473684       0.21052632       0.00000000 </v>
   <v>       0.38596491       0.22807018       0.00000000 </v>
   <v>       0.37719298       0.24561404       0.00000000 </v>
   <v>       0.36842105       0.26315789       0.00000000 </v>
   <v>       0.35964912       0.28070175       0.00000000 </v>
   <v>       0.35087719       0.29824561       0.00000000 </v>
   <v>       0.34210526       0.31578947       0.00000000 </v>
   <v>       0.33333333       0.33333333       0.00000000 </v>
   <v>       0.33333333       0.33333333       0.00000000 </v>
   <v>       0.31578947       0.31578947       0.00000000 </v>
   <v>       0.29824561       0.29824561       0.00000000 </v>
   <v>       0.28070175       0.28070175       0.00000000 </v>
   <v>       0.26315789       0.26315789       0.00000000 </v>
   <v>       0.24561404       0.24561404       0.00000000 </v>
   <v>       0.22807018       0.22807018       0.00000000 </v>
   <v>       0.21052632       0.21052632       0.00000000 </v>
   <v>       0.19298246       0.19298246       0.00000000 </v>
   <v>       0.17543860       0.17543860       0.00000000 </v>
   <v>       0.15789474       0.15789474       0.00000000 </v>
   <v>       0.14035088       0.14035088       0.00000000 </v>
   <v>       0.12280702       0.12280702       0.00000000 </v>
   <v>       0.10526316       0.10526316       0.00000000 </v>
   <v>       0.08771930       0.08771930       0.00000000 </v>
   <v>       0.07017544       0.07017544       0.00000000 </v>
   <v>       0.05263158       0.05263158       0.00000000 </v>
   <v>       0.03508772       0.03508772       0.00000000 </v>
   <v>       0.01754386       0.01754386       0.00000000 </v>
   <v>       0.00000000       0.00000000       0.00000000 </v>
  </varray>
  <varray name="weights" >
   <v>       0.01666667 </v>
   <v>       0.01666667 </v>
   <v>       0.01666667 </v>
   <v>       0.01666667 </v>
   <v>       0.01666667 </v>
   <v>       0.01666667 </v>
   <v>       0.01666667 </v>
   <v>       0.01666667 </v>
   <v>       0.01666667 </v>
   <v>       0.01666667 </v>
   <v>       0.01666667 </v>
   <v>       0.01666667 </v>
   <v>       0.01666667 </v>
   <v>       0.01666667 </v>
   <v>       0.01666667 </v>
   <v>       0.01666667 </v>
   <v>       0.01666667 </v>
   <v>       0.01666667 </v>
   <v>       0.01666667 </v>
   <v>       0.01666667 </v>
   <v>       0.01666667 </v>
   <v>       0.01666667 </v>
   <v>       0.01666667 </v>
   <v>       0.01666667 </v>
   <v>       0.01666667 </v>
   <v>       0.01666667 </v>
   <v>       0.01666667 </v>
   <v>       0.01666667 </v>
   <v>       0.01666667 </v>
   <v>       0.01666667 </v>
   <v>       0.01666667 </v>
   <v>       0.01666667 </v>
   <v>       0.01666667 </v>
   <v>       0.01666667 </v>
   <v>       0.01666667 </v>
   <v>       0.01666667 </v>
   <v>       0.01666667 </v>
   <v>       0.01666667 </v>
   <v>       0.01666667 </v>
   <v>       0.01666667 </v>
   <v>       0.01666667 </v>
   <v>       0.01666667 </v>
   <v>       0.01666667 </v>
   <v>       0.01666667 </v>
   <v>       0.01666667 </v>
   <v>       0.01666667 </v>
   <v>       0.01666667 </v>
   <v>       0.01666667 </v>
   <v>       0.01666667 </v>
   <v>       0.01666667 </v>
   <v>       0.01666667 </v>
   <v>       0.01666667 </v>
   <v>       0.01666667 </v>
   <v>       0.01666667 </v>
   <v>       0.01666667 </v>
   <v>       0.01666667 </v>
   <v>       0.01666667 </v>
   <v>       0.01666667 </v>
   <v>       0.01666667 </v>
   <v>       0.01666667 </v>
  </varray>
 </kpoints>
 <parameters>
  <separator name="general" >
   <i type="string" name="SYSTEM">Simulation for cell shape cell volume r</i>
   <i type="logical" name="LCOMPAT"> F  </i>
  </separator>
  <separator name="electronic" >
   <i type="string" name="PREC">high</i>
   <i name="ENMAX">    500.00000000</i>
   <i name="ENAUG">    644.87300000</i>
   <i name="EDIFF">      0.00001000</i>
   <i type="int" name="IALGO">    38</i>
   <i type="int" name="IWAVPR">    10</i>
   <i type="int" name="NBANDS">   208</i>
   <i name="NELECT">    318.00000000</i>
   <i type="int" name="TURBO">     0</i>
   <i type="int" name="IRESTART">     0</i>
   <i type="int" name="NREBOOT">     0</i>
   <i type="int" name="NMIN">     0</i>
   <i name="EREF">      0.00000000</i>
   <separator name="electronic smearing" >
    <i type="int" name="ISMEAR">     0</i>
    <i name="SIGMA">      0.01000000</i>
    <i name="KSPACING">      0.50000000</i>
    <i type="logical" name="KGAMMA"> T  </i>
   </separator>
   <separator name="electronic projectors" >
    <i type="logical" name="LREAL"> T  </i>
    <v name="ROPT">     -0.00040000     -0.00040000     -0.00040000     -0.00040000</v>
    <i type="int" name="LMAXPAW">  -100</i>
    <i type="int" name="LMAXMIX">     2</i>
    <i type="logical" name="NLSPLINE"> F  </i>
   </separator>
   <separator name="electronic startup" >
    <i type="int" name="ISTART">     1</i>
    <i type="int" name="ICHARG">    11</i>
    <i type="int" name="INIWAV">     1</i>
   </separator>
   <separator name="electronic spin" >
    <i type="int" name="ISPIN">     1</i>
    <i type="logical" name="LNONCOLLINEAR"> F  </i>
    <v name="MAGMOM">      1.00000000      1.00000000      1.00000000      1.00000000      1.00000000      1.00000000      1.00000000      1.00000000      1.00000000      1.00000000      1.00000000      1.00000000      1.00000000      1.00000000      1.00000000      1.00000000      1.00000000      1.00000000      1.00000000      1.00000000
      1.00000000      1.00000000      1.00000000      1.00000000      1.00000000      1.00000000      1.00000000      1.00000000      1.00000000      1.00000000      1.00000000      1.00000000      1.00000000      1.00000000      1.00000000      1.00000000      1.00000000      1.00000000      1.00000000      1.00000000
      1.00000000      1.00000000      1.00000000      1.00000000      1.00000000      1.00000000      1.00000000      1.00000000      1.00000000      1.00000000      1.00000000      1.00000000      1.00000000      1.00000000      1.00000000      1.00000000      1.00000000      1.00000000      1.00000000      1.00000000
      1.00000000      1.00000000      1.00000000      1.00000000      1.00000000      1.00000000      1.00000000      1.00000000      1.00000000      1.00000000      1.00000000      1.00000000      1.00000000      1.00000000      1.00000000      1.00000000      1.00000000      1.00000000      1.00000000      1.00000000
      1.00000000      1.00000000      1.00000000      1.00000000</v>
    <i name="NUPDOWN">     -1.00000000</i>
    <i type="logical" name="LSORBIT"> F  </i>
    <v name="SAXIS">      0.00000000      0.00000000      1.00000000</v>
    <i type="logical" name="LSPIRAL"> F  </i>
    <v name="QSPIRAL">      0.00000000      0.00000000      0.00000000</v>
    <i type="logical" name="LZEROZ"> F  </i>
   </separator>
   <separator name="electronic exchange-correlation" >
    <i type="logical" name="LASPH"> F  </i>
    <i type="logical" name="LMETAGGA"> F  </i>
   </separator>
   <separator name="electronic convergence" >
    <i type="int" name="NELM">   200</i>
    <i type="int" name="NELMDL">     0</i>
    <i type="int" name="NELMIN">     2</i>
    <i name="ENINI">    500.00000000</i>
    <separator name="electronic convergence detail" >
     <i type="logical" name="LDIAG"> T  </i>
     <i type="logical" name="LSUBROT"> F  </i>
     <i name="WEIMIN">      0.00000000</i>
     <i name="EBREAK">      0.00000001</i>
     <i name="DEPER">      0.30000000</i>
     <i type="int" name="NRMM">     4</i>
     <i name="TIME">      0.40000000</i>
    </separator>
   </separator>
   <separator name="electronic mixer" >
    <i name="AMIX">      0.40000000</i>
    <i name="BMIX">      1.00000000</i>
    <i name="AMIN">      0.10000000</i>
    <i name="AMIX_MAG">      1.60000000</i>
    <i name="BMIX_MAG">      1.00000000</i>
    <separator name="electronic mixer details" >
     <i type="int" name="IMIX">     4</i>
     <i type="logical" name="MIXFIRST"> F  </i>
     <i type="int" name="MAXMIX">   -45</i>
     <i name="WC">    100.00000000</i>
     <i type="int" name="INIMIX">     1</i>
     <i type="int" name="MIXPRE">     1</i>
     <i type="int" name="MREMOVE">     5</i>
    </separator>
   </separator>
   <separator name="electronic dipolcorrection" >
    <i type="logical" name="LDIPOL"> F  </i>
    <i type="logical" name="LMONO"> F  </i>
    <i type="int" name="IDIPOL">     0</i>
    <i name="EPSILON">      1.00000000</i>
    <v name="DIPOL">   -100.00000000   -100.00000000   -100.00000000</v>
    <i name="EFIELD">      0.00000000</i>
   </separator>
  </separator>
  <separator name="grids" >
   <i type="int" name="NGX">   160</i>
   <i type="int" name="NGY">   160</i>
   <i type="int" name="NGZ">   150</i>
   <i type="int" name="NGXF">   240</i>
   <i type="int" name="NGYF">   240</i>
   <i type="int" name="NGZF">   224</i>
   <i type="logical" name="ADDGRID"> F  </i>
  </separator>
  <separator name="ionic" >
   <i type="int" name="NSW">     0</i>
   <i type="int" name="IBRION">    -1</i>
   <i type="int" name="MDALGO">     0</i>
   <i type="int" name="ISIF">     2</i>
   <i name="PSTRESS">      0.00000000</i>
   <i name="EDIFFG">     -0.01000000</i>
   <i type="int" name="NFREE">     0</i>
   <i name="POTIM">      0.30000000</i>
   <i name="SMASS">     -3.00000000</i>
   <i name="SCALEE">      1.00000000</i>
  </separator>
  <separator name="ionic md" >
   <i name="TEBEG">      0.00010000</i>
   <i name="TEEND">      0.00010000</i>
   <i type="int" name="NBLOCK">     1</i>
   <i type="int" name="KBLOCK">     1</i>
   <i type="int" name="NPACO">   256</i>
   <i name="APACO">     16.00000000</i>
  </separator>
  <separator name="symmetry" >
   <i type="int" name="ISYM">     2</i>
   <i name="SYMPREC">      0.00001000</i>
  </separator>
  <separator name="dos" >
   <i type="int" name="LORBIT">     0</i>
   <v name="RWIGS">     -1.00000000     -1.00000000     -1.00000000     -1.00000000</v>
   <i type="int" name="NEDOS">   301</i>
   <i name="EMIN">     10.00000000</i>
   <i name="EMAX">    -10.00000000</i>
   <i name="EFERMI">      0.00000000</i>
  </separator>
  <separator name="writing" >
   <i type="int" name="NWRITE">     0</i>
   <i type="logical" name="LWAVE"> F  </i>
   <i type="logical" name="LDOWNSAMPLE"> F  </i>
   <i type="logical" name="LCHARG"> F  </i>
   <i type="logical" name="LPARD"> F  </i>
   <i type="logical" name="LVTOT"> F  </i>
   <i type="logical" name="LVHAR"> F  </i>
   <i type="logical" name="LELF"> F  </i>
   <i type="logical" name="LOPTICS"> F  </i>
   <v name="STM">      0.00000000      0.00000000      0.00000000      0.00000000      0.00000000      0.00000000      0.00000000</v>
  </separator>
  <separator name="performance" >
   <i type="int" name="NPAR">    16</i>
   <i type="int" name="NSIM">     4</i>
   <i type="int" name="NBLK">    -1</i>
   <i type="logical" name="LPLANE"> T  </i>
   <i type="logical" name="LSCALAPACK"> T  </i>
   <i type="logical" name="LSCAAWARE"> F  </i>
   <i type="logical" name="LSCALU"> F  </i>
   <i type="logical" name="LASYNC"> F  </i>
   <i type="logical" name="LORBITALREAL"> F  </i>
  </separator>
  <separator name="miscellaneous" >
   <i type="int" name="IDIOT">     3</i>
   <i type="int" name="ISPECIAL">     0</i>
   <i type="logical" name="LMUSIC"> F  </i>
   <v name="POMASS">      1.00000000     14.00100000     12.01100000     16.00000000</v>
   <v name="DARWINR">      0.00000000      0.00000000      0.00000000      0.00000000</v>
   <v name="DARWINV">      1.00000000      1.00000000      1.00000000      1.00000000</v>
   <i type="logical" name="LCORR"> T  </i>
  </separator>
  <i type="logical" name="GGA_COMPAT"> T  </i>
  <i type="logical" name="LBERRY"> F  </i>
  <i type="int" name="ICORELEVEL">     0</i>
  <i type="logical" name="LDAU"> F  </i>
  <i type="int" name="I_CONSTRAINED_M">     0</i>
  <separator name="electronic exchange-correlation" >
   <i type="string" name="GGA">PE</i>
   <i type="int" name="VOSKOWN">     0</i>
   <i type="logical" name="LHFCALC"> F  </i>
   <i type="string" name="PRECFOCK"></i>
   <i type="logical" name="LSYMGRAD"> F  </i>
   <i type="logical" name="LHFONE"> F  </i>
   <i type="logical" name="LRHFCALC"> F  </i>
   <i type="logical" name="LTHOMAS"> F  </i>
   <i type="logical" name="LMODELHF"> F  </i>
   <i name="ENCUT4O">     -1.00000000</i>
   <i type="int" name="EXXOEP">     0</i>
   <i type="int" name="FOURORBIT">     0</i>
   <i name="AEXX">      0.00000000</i>
   <i name="HFALPHA">      0.00000000</i>
   <i name="MCALPHA">      0.00000000</i>
   <i name="ALDAX">      1.00000000</i>
   <i name="AGGAX">      1.00000000</i>
   <i name="ALDAC">      1.00000000</i>
   <i name="AGGAC">      1.00000000</i>
   <i type="int" name="NKREDX">     1</i>
   <i type="int" name="NKREDY">     1</i>
   <i type="int" name="NKREDZ">     1</i>
   <i type="logical" name="SHIFTRED"> F  </i>
   <i type="logical" name="ODDONLY"> F  </i>
   <i type="logical" name="EVENONLY"> F  </i>
   <i type="int" name="LMAXFOCK">     0</i>
   <i type="int" name="NMAXFOCKAE">     0</i>
   <i type="logical" name="LFOCKAEDFT"> F  </i>
   <i name="HFSCREEN">      0.00000000</i>
   <i name="HFSCREENC">      0.00000000</i>
   <i type="int" name="NBANDSGWLOW">     0</i>
  </separator>
  <separator name="vdW DFT" >
   <i type="logical" name="LUSE_VDW"> F  </i>
   <i name="Zab_VDW">     -0.84910000</i>
   <i name="PARAM1">      0.12340000</i>
   <i name="PARAM2">      1.00000000</i>
   <i name="PARAM3">      0.00000000</i>
  </separator>
  <separator name="model GW" >
   <i type="int" name="MODEL_GW">     0</i>
   <i name="MODEL_EPS0">     58.18916597</i>
   <i name="MODEL_ALPHA">      1.00000000</i>
  </separator>
  <separator name="linear response parameters" >
   <i type="logical" name="LEPSILON"> F  </i>
   <i type="logical" name="LRPA"> F  </i>
   <i type="logical" name="LNABLA"> F  </i>
   <i type="logical" name="LVEL"> F  </i>
   <i type="int" name="KINTER">     0</i>
   <i name="CSHIFT">      0.10000000</i>
   <i name="OMEGAMAX">     -1.00000000</i>
   <i name="DEG_THRESHOLD">      0.00200000</i>
   <i name="RTIME">     -0.10000000</i>
   <i name="WPLASMAI">      0.00000000</i>
   <v name="DFIELD">      0.00000000      0.00000000      0.00000000</v>
   <v name="WPLASMA">      0.00000000      0.00000000      0.00000000      0.00000000      0.00000000      0.00000000      0.00000000      0.00000000      0.00000000</v>
  </separator>
  <separator name="orbital magnetization" >
   <i type="logical" name="NUCIND"> F  </i>
   <v name="MAGPOS">      0.00000000      0.00000000      0.00000000</v>
   <i type="logical" name="LNICSALL"> T  </i>
   <i type="logical" name="ORBITALMAG"> F  </i>
   <i type="logical" name="LMAGBLOCH"> F  </i>
   <i type="logical" name="LCHIMAG"> F  </i>
   <i type="logical" name="LGAUGE"> T  </i>
   <i type="int" name="MAGATOM">     0</i>
   <v name="MAGDIPOL">      0.00000000      0.00000000      0.00000000</v>
   <v name="AVECCONST">      0.00000000      0.00000000      0.00000000</v>
  </separator>
  <separator name="response functions" >
   <i type="logical" name="LADDER"> F  </i>
   <i type="logical" name="LRPAFORCE"> F  </i>
   <i type="logical" name="LFXC"> F  </i>
   <i type="logical" name="LHARTREE"> T  </i>
   <i type="int" name="IBSE">     0</i>
   <v type="int" name="KPOINT">    -1     0     0     0</v>
   <i type="logical" name="LTCTE"> F  </i>
   <i type="logical" name="LTETE"> F  </i>
   <i type="logical" name="LTRIPLET"> F  </i>
   <i type="logical" name="LFXCEPS"> F  </i>
   <i type="logical" name="LFXHEG"> F  </i>
   <i type="int" name="NATURALO">     2</i>
   <i type="logical" name="L2ORDER"> F  </i>
   <i type="logical" name="LMP2LT"> F  </i>
   <i type="logical" name="LUSEW"> F  </i>
   <i name="ENCUTGW">     -2.00000000</i>
   <i name="ENCUTGWSOFT">     -2.00000000</i>
   <i name="ENCUTLF">     -1.00000000</i>
   <i type="int" name="LMAXMP2">    -1</i>
   <i name="SCISSOR">      0.00000000</i>
   <i type="int" name="NOMEGA">     0</i>
   <i type="int" name="NOMEGAR">     0</i>
   <i type="int" name="NBANDSGW">    -1</i>
   <i type="int" name="NBANDSO">    -1</i>
   <i type="int" name="NBANDSV">    -1</i>
   <i type="int" name="NELM">   200</i>
   <i type="int" name="NELMHF">     1</i>
   <i type="int" name="DIM">     3</i>
   <i type="int" name="ANTIRES">     0</i>
   <i name="OMEGAMAX">    -30.00000000</i>
   <i name="OMEGAMIN">    -30.00000000</i>
   <i name="OMEGATL">   -200.00000000</i>
   <i type="int" name="OMEGAGRID">   140</i>
   <i name="CSHIFT">     -0.10000000</i>
   <i type="logical" name="SELFENERGY"> F  </i>
   <i type="logical" name="LSPECTRAL"> F  </i>
   <i type="logical" name="LSPECTRALGW"> F  </i>
   <i type="logical" name="LSINGLES"> F  </i>
   <i type="logical" name="LFERMIGW"> F  </i>
   <i type="logical" name="ODDONLYGW"> F  </i>
   <i type="logical" name="EVENONLYGW"> F  </i>
   <i type="int" name="NKREDLFX">     1</i>
   <i type="int" name="NKREDLFY">     1</i>
   <i type="int" name="NKREDLFZ">     1</i>
   <i type="int" name="MAXMEM">  2800</i>
   <i type="int" name="TELESCOPE">     0</i>
   <i type="int" name="TAUPAR">     1</i>
   <i type="int" name="OMEGAPAR">    -1</i>
   <i name="LAMBDA">      1.00000000</i>
  </separator>
  <separator name="External order field" >
   <i name="OFIELD_KAPPA">      0.00000000</i>
   <v name="OFIELD_K">      0.00000000      0.00000000      0.00000000</v>
   <i name="OFIELD_Q6_NEAR">      0.00000000</i>
   <i name="OFIELD_Q6_FAR">      0.00000000</i>
   <i name="OFIELD_A">      0.00000000</i>
  </separator>
  <separator name="solvation model" >
   <i type="logical" name="LSOL"> F  </i>
  </separator>
 </parameters>
 <atominfo>
  <atoms>      84 </atoms>
  <types>       4 </types>
  <array name="atoms" >
   <dimension dim="1">ion</dimension>
   <field type="string">element</field>
   <field type="int">atomtype</field>
   <set>
    <rc><c>H </c><c>   1</c></rc>
    <rc><c>H </c><c>   1</c></rc>
    <rc><c>H </c><c>   1</c></rc>
    <rc><c>H </c><c>   1</c></rc>
    <rc><c>H </c><c>   1</c></rc>
    <rc><c>H </c><c>   1</c></rc>
    <rc><c>H </c><c>   1</c></rc>
    <rc><c>H </c><c>   1</c></rc>
    <rc><c>H </c><c>   1</c></rc>
    <rc><c>H </c><c>   1</c></rc>
    <rc><c>H </c><c>   1</c></rc>
    <rc><c>H </c><c>   1</c></rc>
    <rc><c>H </c><c>   1</c></rc>
    <rc><c>H </c><c>   1</c></rc>
    <rc><c>H </c><c>   1</c></rc>
    <rc><c>H </c><c>   1</c></rc>
    <rc><c>H </c><c>   1</c></rc>
    <rc><c>H </c><c>   1</c></rc>
    <rc><c>N </c><c>   2</c></rc>
    <rc><c>N </c><c>   2</c></rc>
    <rc><c>N </c><c>   2</c></rc>
    <rc><c>N </c><c>   2</c></rc>
    <rc><c>N </c><c>   2</c></rc>
    <rc><c>N </c><c>   2</c></rc>
    <rc><c>N </c><c>   2</c></rc>
    <rc><c>N </c><c>   2</c></rc>
    <rc><c>N </c><c>   2</c></rc>
    <rc><c>N </c><c>   2</c></rc>
    <rc><c>N </c><c>   2</c></rc>
    <rc><c>N </c><c>   2</c></rc>
    <rc><c>C </c><c>   3</c></rc>
    <rc><c>C </c><c>   3</c></rc>
    <rc><c>C </c><c>   3</c></rc>
    <rc><c>C </c><c>   3</c></rc>
    <rc><c>C </c><c>   3</c></rc>
    <rc><c>C </c><c>   3</c></rc>
    <rc><c>C </c><c>   3</c></rc>
    <rc><c>C </c><c>   3</c></rc>
    <rc><c>C </c><c>   3</c></rc>
    <rc><c>C </c><c>   3</c></rc>
    <rc><c>C </c><c>   3</c></rc>
    <rc><c>C </c><c>   3</c></rc>
    <rc><c>C </c><c>   3</c></rc>
    <rc><c>C </c><c>   3</c></rc>
    <rc><c>C </c><c>   3</c></rc>
    <rc><c>C </c><c>   3</c></rc>
    <rc><c>C </c><c>   3</c></rc>
    <rc><c>C </c><c>   3</c></rc>
    <rc><c>C </c><c>   3</c></rc>
    <rc><c>C </c><c>   3</c></rc>
    <rc><c>C </c><c>   3</c></rc>
    <rc><c>C </c><c>   3</c></rc>
    <rc><c>C </c><c>   3</c></rc>
    <rc><c>C </c><c>   3</c></rc>
    <rc><c>C </c><c>   3</c></rc>
    <rc><c>C </c><c>   3</c></rc>
    <rc><c>C </c><c>   3</c></rc>
    <rc><c>C </c><c>   3</c></rc>
    <rc><c>C </c><c>   3</c></rc>
    <rc><c>C </c><c>   3</c></rc>
    <rc><c>C </c><c>   3</c></rc>
    <rc><c>C </c><c>   3</c></rc>
    <rc><c>C </c><c>   3</c></rc>
    <rc><c>C </c><c>   3</c></rc>
    <rc><c>C </c><c>   3</c></rc>
    <rc><c>C </c><c>   3</c></rc>
    <rc><c>C </c><c>   3</c></rc>
    <rc><c>C </c><c>   3</c></rc>
    <rc><c>C </c><c>   3</c></rc>
    <rc><c>C </c><c>   3</c></rc>
    <rc><c>C </c><c>   3</c></rc>
    <rc><c>C </c><c>   3</c></rc>
    <rc><c>O </c><c>   4</c></rc>
    <rc><c>O </c><c>   4</c></rc>
    <rc><c>O </c><c>   4</c></rc>
    <rc><c>O </c><c>   4</c></rc>
    <rc><c>O </c><c>   4</c></rc>
    <rc><c>O </c><c>   4</c></rc>
    <rc><c>O </c><c>   4</c></rc>
    <rc><c>O </c><c>   4</c></rc>
    <rc><c>O </c><c>   4</c></rc>
    <rc><c>O </c><c>   4</c></rc>
    <rc><c>O </c><c>   4</c></rc>
    <rc><c>O </c><c>   4</c></rc>
   </set>
  </array>
  <array name="atomtypes" >
   <dimension dim="1">type</dimension>
   <field type="int">atomspertype</field>
   <field type="string">element</field>
   <field>mass</field>
   <field>valence</field>
   <field type="string">pseudopotential</field>
   <set>
    <rc><c>  18</c><c>H </c><c>      1.00000000</c><c>      1.00000000</c><c>  PAW_PBE H 15Jun2001                   </c></rc>
    <rc><c>  12</c><c>N </c><c>     14.00100000</c><c>      5.00000000</c><c>  PAW_PBE N 08Apr2002                   </c></rc>
    <rc><c>  42</c><c>C </c><c>     12.01100000</c><c>      4.00000000</c><c>  PAW_PBE C 08Apr2002                   </c></rc>
    <rc><c>  12</c><c>O </c><c>     16.00000000</c><c>      6.00000000</c><c>  PAW_PBE O 08Apr2002                   </c></rc>
   </set>
  </array>
 </atominfo>
 <structure name="initialpos" >
  <crystal>
   <varray name="basis" >
    <v>      21.68726421       0.00000001       0.00000000 </v>
    <v>     -10.84363211      18.78172174       0.00000000 </v>
    <v>       0.00000000       0.00000000      20.00000000 </v>
   </varray>
   <i name="volume">   8146.48323516 </i>
   <varray name="rec_basis" >
    <v>       0.04611001       0.02662163       0.00000000 </v>
    <v>      -0.00000000       0.05324325       0.00000000 </v>
    <v>       0.00000000       0.00000000       0.05000000 </v>
   </varray>
  </crystal>
  <varray name="positions" >
   <v>       0.67252735       0.95328970       0.58563743 </v>
   <v>       0.33880498       0.82877213       0.55808455 </v>
   <v>       0.17251169       0.00737142       0.50745936 </v>
   <v>       0.25002450       0.93803795       0.66282350 </v>
   <v>       0.17122787       0.51003285       0.55808455 </v>
   <v>       0.99262858       0.16514027       0.50745936 </v>
   <v>       0.06196205       0.31198656       0.66282350 </v>
   <v>       0.48996715       0.66119502       0.55808455 </v>
   <v>       0.83485973       0.82748831       0.50745936 </v>
   <v>       0.68801344       0.74997550       0.66282350 </v>
   <v>       0.96859165       0.81636592       0.48471736 </v>
   <v>       0.16201391       0.65557868       0.45506707 </v>
   <v>       0.04671030       0.71923765       0.58563743 </v>
   <v>       0.18363408       0.15222573       0.48471736 </v>
   <v>       0.34442132       0.50643523       0.45506707 </v>
   <v>       0.28076235       0.32747265       0.58563743 </v>
   <v>       0.84777427       0.03140835       0.48471736 </v>
   <v>       0.49356477       0.83798609       0.45506707 </v>
   <v>       0.73926295       0.82689737       0.50982023 </v>
   <v>       0.96765819       0.04072858       0.49264022 </v>
   <v>       0.95927142       0.92692962       0.49264022 </v>
   <v>       0.07307038       0.03234181       0.49264022 </v>
   <v>       0.37115464       0.63116476       0.50010075 </v>
   <v>       0.36883524       0.73998988       0.50010075 </v>
   <v>       0.26001012       0.62884536       0.50010075 </v>
   <v>       0.17310263       0.91236558       0.50982023 </v>
   <v>       0.08763442       0.26073705       0.50982023 </v>
   <v>       0.14970888       0.74136045       0.48043695 </v>
   <v>       0.25863955       0.40834843       0.48043695 </v>
   <v>       0.59165157       0.85029112       0.48043695 </v>
   <v>       0.70594374       0.86523634       0.50799674 </v>
   <v>       0.71000304       0.98653518       0.49699905 </v>
   <v>       0.74329421       0.93995856       0.49956362 </v>
   <v>       0.80977451       0.86026540       0.50461654 </v>
   <v>       0.81716417       0.97400173       0.49240470 </v>
   <v>       0.03886465       0.06970277       0.49279601 </v>
   <v>       0.93029723       0.96916188       0.49279601 </v>
   <v>       0.03083812       0.96113535       0.49279601 </v>
   <v>       0.29956864       0.59693382       0.50034138 </v>
   <v>       0.40306618       0.70263483       0.50034138 </v>
   <v>       0.29736517       0.70043136       0.50034138 </v>
   <v>       0.25675640       0.73827832       0.50419610 </v>
   <v>       0.17707956       0.80440761       0.51201851 </v>
   <v>       0.24419565       0.83640277       0.54400392 </v>
   <v>       0.28547124       0.80407283       0.53664655 </v>
   <v>       0.13476366       0.84070740       0.50799674 </v>
   <v>       0.06558786       0.91749828       0.49583113 </v>
   <v>       0.13973460       0.94950911       0.50461654 </v>
   <v>       0.27327415       0.90123169       0.58735816 </v>
   <v>       0.26172168       0.51847808       0.50419610 </v>
   <v>       0.19559239       0.37267195       0.51201851 </v>
   <v>       0.16359723       0.40779288       0.54400392 </v>
   <v>       0.19592717       0.48139841       0.53664655 </v>
   <v>       0.15929260       0.29405626       0.50799674 </v>
   <v>       0.08250172       0.14808958       0.49583113 </v>
   <v>       0.05049089       0.19022549       0.50461654 </v>
   <v>       0.09876831       0.37204246       0.58735816 </v>
   <v>       0.48152192       0.74324360       0.50419610 </v>
   <v>       0.62732805       0.82292044       0.51201851 </v>
   <v>       0.59220712       0.75580435       0.54400392 </v>
   <v>       0.51860159       0.71452876       0.53664655 </v>
   <v>       0.85191042       0.93441214       0.49583113 </v>
   <v>       0.62795754       0.72672585       0.58735816 </v>
   <v>       0.18720232       0.70798735       0.47869026 </v>
   <v>       0.06004144       0.80333565       0.49956362 </v>
   <v>       0.02599827       0.84316244       0.49240470 </v>
   <v>       0.01346482       0.72346787       0.49699905 </v>
   <v>       0.29201265       0.47921498       0.47869026 </v>
   <v>       0.19666435       0.25670579       0.49956362 </v>
   <v>       0.15683756       0.18283583       0.49240470 </v>
   <v>       0.27653213       0.28999696       0.49699905 </v>
   <v>       0.52078502       0.81279768       0.47869026 </v>
   <v>       0.71896750       0.02582249       0.45031875 </v>
   <v>       0.67492416       0.98805666       0.55314587 </v>
   <v>       0.33363505       0.95154088       0.58364944 </v>
   <v>       0.22629444       0.89398562       0.63658237 </v>
   <v>       0.04845912       0.38209417       0.58364944 </v>
   <v>       0.10601438       0.33230882       0.63658237 </v>
   <v>       0.61790583       0.66636495       0.58364944 </v>
   <v>       0.66769118       0.77370556       0.63658237 </v>
   <v>       0.97417751       0.69314502       0.45031875 </v>
   <v>       0.01194334       0.68686750       0.55314587 </v>
   <v>       0.30685498       0.28103250       0.45031875 </v>
   <v>       0.31313250       0.32507584       0.55314587 </v>
  </varray>
 </structure>
 <calculation>
  <scstep>
   <time name="dav">  126.60  127.63</time>
   <time name="total">  126.74  127.78</time>
   <energy>
    <i name="alphaZ">     56.32360126 </i>
    <i name="ewald">  37090.42870601 </i>
    <i name="hartreedc"> -49346.95139846 </i>
    <i name="XCdc">   1209.36020531 </i>
    <i name="pawpsdc">  29904.16287499 </i>
    <i name="pawaedc"> -29973.45831722 </i>
    <i name="eentropy">     -0.00000000 </i>
    <i name="bandstr">  -4329.13516134 </i>
    <i name="atom">  14767.68485670 </i>
    <i name="e_fr_energy">   -621.58463275 </i>
    <i name="e_wo_entrp">   -621.58463275 </i>
    <i name="e_0_energy">   -621.58463275 </i>
   </energy>
  </scstep>
  <scstep>
   <time name="dav">  144.62  145.79</time>
   <time name="total">  144.63  145.81</time>
   <energy>
    <i name="e_fr_energy">   -622.41763307 </i>
    <i name="e_wo_entrp">   -622.41763307 </i>
    <i name="e_0_energy">   -622.41763307 </i>
   </energy>
  </scstep>
  <scstep>
   <time name="dav">  161.77  163.07</time>
   <time name="total">  161.78  163.08</time>
   <energy>
    <i name="e_fr_energy">   -622.43976461 </i>
    <i name="e_wo_entrp">   -622.43976461 </i>
    <i name="e_0_energy">   -622.43976461 </i>
   </energy>
  </scstep>
  <scstep>
   <time name="dav">  142.44  143.56</time>
   <time name="total">  142.45  143.57</time>
   <energy>
    <i name="e_fr_energy">   -622.44008763 </i>
    <i name="e_wo_entrp">   -622.44008763 </i>
    <i name="e_0_energy">   -622.44008763 </i>
   </energy>
  </scstep>
  <scstep>
   <time name="dav">  144.47  145.60</time>
   <time name="total">  144.47  145.61</time>
   <energy>
    <i name="e_fr_energy">   -622.44010328 </i>
    <i name="e_wo_entrp">   -622.44010328 </i>
    <i name="e_0_energy">   -622.44010328 </i>
   </energy>
  </scstep>
  <scstep>
   <time name="dav">  107.87  108.71</time>
   <time name="total">  107.87  108.72</time>
   <energy>
    <i name="alphaZ">     56.32360126 </i>
    <i name="ewald">  37090.42870601 </i>
    <i name="hartreedc"> -49346.95139846 </i>
    <i name="XCdc">   1209.36020531 </i>
    <i name="pawpsdc">  29904.16287499 </i>
    <i name="pawaedc"> -29973.45831722 </i>
    <i name="eentropy">     -0.00000000 </i>
    <i name="bandstr">  -4329.99063226 </i>
    <i name="atom">  14767.68485670 </i>
    <i name="e_fr_energy">   -622.44010367 </i>
    <i name="e_wo_entrp">   -622.44010367 </i>
    <i name="e_0_energy">   -622.44010367 </i>
   </energy>
  </scstep>
  <structure>
   <crystal>
    <varray name="basis" >
     <v>      21.68726421       0.00000001       0.00000000 </v>
     <v>     -10.84363211      18.78172174       0.00000000 </v>
     <v>       0.00000000       0.00000000      20.00000000 </v>
    </varray>
    <i name="volume">   8146.48323516 </i>
    <varray name="rec_basis" >
     <v>       0.04611001       0.02662163       0.00000000 </v>
     <v>      -0.00000000       0.05324325       0.00000000 </v>
     <v>       0.00000000       0.00000000       0.05000000 </v>
    </varray>
   </crystal>
   <varray name="positions" >
    <v>       0.67252735       0.95328970       0.58563743 </v>
    <v>       0.33880498       0.82877213       0.55808455 </v>
    <v>       0.17251169       0.00737142       0.50745936 </v>
    <v>       0.25002450       0.93803795       0.66282350 </v>
    <v>       0.17122787       0.51003285       0.55808455 </v>
    <v>       0.99262858       0.16514027       0.50745936 </v>
    <v>       0.06196205       0.31198656       0.66282350 </v>
    <v>       0.48996715       0.66119502       0.55808455 </v>
    <v>       0.83485973       0.82748831       0.50745936 </v>
    <v>       0.68801344       0.74997550       0.66282350 </v>
    <v>       0.96859165       0.81636592       0.48471736 </v>
    <v>       0.16201391       0.65557868       0.45506707 </v>
    <v>       0.04671030       0.71923765       0.58563743 </v>
    <v>       0.18363408       0.15222573       0.48471736 </v>
    <v>       0.34442132       0.50643523       0.45506707 </v>
    <v>       0.28076235       0.32747265       0.58563743 </v>
    <v>       0.84777427       0.03140835       0.48471736 </v>
    <v>       0.49356477       0.83798609       0.45506707 </v>
    <v>       0.73926295       0.82689737       0.50982023 </v>
    <v>       0.96765819       0.04072858       0.49264022 </v>
    <v>       0.95927142       0.92692962       0.49264022 </v>
    <v>       0.07307038       0.03234181       0.49264022 </v>
    <v>       0.37115464       0.63116476       0.50010075 </v>
    <v>       0.36883524       0.73998988       0.50010075 </v>
    <v>       0.26001012       0.62884536       0.50010075 </v>
    <v>       0.17310263       0.91236558       0.50982023 </v>
    <v>       0.08763442       0.26073705       0.50982023 </v>
    <v>       0.14970888       0.74136045       0.48043695 </v>
    <v>       0.25863955       0.40834843       0.48043695 </v>
    <v>       0.59165157       0.85029112       0.48043695 </v>
    <v>       0.70594374       0.86523634       0.50799674 </v>
    <v>       0.71000304       0.98653518       0.49699905 </v>
    <v>       0.74329421       0.93995856       0.49956362 </v>
    <v>       0.80977451       0.86026540       0.50461654 </v>
    <v>       0.81716417       0.97400173       0.49240470 </v>
    <v>       0.03886465       0.06970277       0.49279601 </v>
    <v>       0.93029723       0.96916188       0.49279601 </v>
    <v>       0.03083812       0.96113535       0.49279601 </v>
    <v>       0.29956864       0.59693382       0.50034138 </v>
    <v>       0.40306618       0.70263483       0.50034138 </v>
    <v>       0.29736517       0.70043136       0.50034138 </v>
    <v>       0.25675640       0.73827832       0.50419610 </v>
    <v>       0.17707956       0.80440761       0.51201851 </v>
    <v>       0.24419565       0.83640277       0.54400392 </v>
    <v>       0.28547124       0.80407283       0.53664655 </v>
    <v>       0.13476366       0.84070740       0.50799674 </v>
    <v>       0.06558786       0.91749828       0.49583113 </v>
    <v>       0.13973460       0.94950911       0.50461654 </v>
    <v>       0.27327415       0.90123169       0.58735816 </v>
    <v>       0.26172168       0.51847808       0.50419610 </v>
    <v>       0.19559239       0.37267195       0.51201851 </v>
    <v>       0.16359723       0.40779288       0.54400392 </v>
    <v>       0.19592717       0.48139841       0.53664655 </v>
    <v>       0.15929260       0.29405626       0.50799674 </v>
    <v>       0.08250172       0.14808958       0.49583113 </v>
    <v>       0.05049089       0.19022549       0.50461654 </v>
    <v>       0.09876831       0.37204246       0.58735816 </v>
    <v>       0.48152192       0.74324360       0.50419610 </v>
    <v>       0.62732805       0.82292044       0.51201851 </v>
    <v>       0.59220712       0.75580435       0.54400392 </v>
    <v>       0.51860159       0.71452876       0.53664655 </v>
    <v>       0.85191042       0.93441214       0.49583113 </v>
    <v>       0.62795754       0.72672585       0.58735816 </v>
    <v>       0.18720232       0.70798735       0.47869026 </v>
    <v>       0.06004144       0.80333565       0.49956362 </v>
    <v>       0.02599827       0.84316244       0.49240470 </v>
    <v>       0.01346482       0.72346787       0.49699905 </v>
    <v>       0.29201265       0.47921498       0.47869026 </v>
    <v>       0.19666435       0.25670579       0.49956362 </v>
    <v>       0.15683756       0.18283583       0.49240470 </v>
    <v>       0.27653213       0.28999696       0.49699905 </v>
    <v>       0.52078502       0.81279768       0.47869026 </v>
    <v>       0.71896750       0.02582249       0.45031875 </v>
    <v>       0.67492416       0.98805666       0.55314587 </v>
    <v>       0.33363505       0.95154088       0.58364944 </v>
    <v>       0.22629444       0.89398562       0.63658237 </v>
    <v>       0.04845912       0.38209417       0.58364944 </v>
    <v>       0.10601438       0.33230882       0.63658237 </v>
    <v>       0.61790583       0.66636495       0.58364944 </v>
    <v>       0.66769118       0.77370556       0.63658237 </v>
    <v>       0.97417751       0.69314502       0.45031875 </v>
    <v>       0.01194334       0.68686750       0.55314587 </v>
    <v>       0.30685498       0.28103250       0.45031875 </v>
    <v>       0.31313250       0.32507584       0.55314587 </v>
   </varray>
  </structure>
  <varray name="forces" >
   <v>       0.00161081       0.00327552      -0.00217264 </v>
   <v>       0.00053697       0.00051137       0.00222133 </v>
   <v>      -0.00005657       0.00142486      -0.00550658 </v>
   <v>      -0.00238119      -0.00300680      -0.00132564 </v>
   <v>      -0.00071134       0.00020935       0.00222133 </v>
   <v>      -0.00120568      -0.00076142      -0.00550658 </v>
   <v>       0.00379456      -0.00055877      -0.00132564 </v>
   <v>       0.00017437      -0.00072072       0.00222133 </v>
   <v>       0.00126225      -0.00066344      -0.00550658 </v>
   <v>      -0.00141337       0.00356557      -0.00132564 </v>
   <v>      -0.00130276      -0.00104808       0.00211269 </v>
   <v>       0.00003786      -0.00165597       0.00198452 </v>
   <v>      -0.00364209      -0.00024276      -0.00217264 </v>
   <v>       0.00155904      -0.00060418       0.00211269 </v>
   <v>       0.00141518       0.00086077       0.00198452 </v>
   <v>       0.00203128      -0.00303276      -0.00217264 </v>
   <v>      -0.00025628       0.00165226       0.00211269 </v>
   <v>      -0.00145304       0.00079519       0.00198452 </v>
   <v>       0.00066924       0.00188296      -0.00026954 </v>
   <v>      -0.00141594       0.00188139       0.00166657 </v>
   <v>      -0.00092137      -0.00216694       0.00166657 </v>
   <v>       0.00233730       0.00028554       0.00166657 </v>
   <v>       0.00682572      -0.00418011       0.00059251 </v>
   <v>       0.00020722       0.00800130       0.00059251 </v>
   <v>      -0.00703294      -0.00382119       0.00059251 </v>
   <v>      -0.00196531      -0.00036190      -0.00026954 </v>
   <v>       0.00129607      -0.00152106      -0.00026954 </v>
   <v>       0.00091182       0.00003793       0.00327252 </v>
   <v>      -0.00048876       0.00077069       0.00327252 </v>
   <v>      -0.00042306      -0.00080862       0.00327252 </v>
   <v>       0.00034299      -0.00120227      -0.00321037 </v>
   <v>      -0.00181501      -0.00192647       0.00145350 </v>
   <v>       0.00079680       0.00537918       0.00050303 </v>
   <v>       0.00038040       0.00216192      -0.00330626 </v>
   <v>      -0.00539841      -0.00219899       0.00095008 </v>
   <v>      -0.00405938       0.00306304       0.00132833 </v>
   <v>      -0.00062298      -0.00504704       0.00132833 </v>
   <v>       0.00468236       0.00198400       0.00132833 </v>
   <v>       0.00178196      -0.00138199      -0.00080771 </v>
   <v>       0.00030586       0.00223422      -0.00080771 </v>
   <v>      -0.00208782      -0.00085223      -0.00080771 </v>
   <v>       0.00673101      -0.00252338       0.00012961 </v>
   <v>      -0.00377829      -0.00190962      -0.00153053 </v>
   <v>       0.00404257       0.00130947       0.00121037 </v>
   <v>      -0.00115973       0.00504134       0.00283591 </v>
   <v>       0.00086970       0.00089818      -0.00321037 </v>
   <v>      -0.00390887       0.00264635      -0.00516634 </v>
   <v>      -0.00206248      -0.00075152      -0.00330626 </v>
   <v>      -0.00006544       0.00338629      -0.00093928 </v>
   <v>      -0.00118020       0.00709091       0.00012961 </v>
   <v>       0.00354293      -0.00231728      -0.00153053 </v>
   <v>      -0.00315532       0.00284623       0.00121037 </v>
   <v>      -0.00378606      -0.00352502       0.00283591 </v>
   <v>      -0.00121270       0.00030410      -0.00321037 </v>
   <v>      -0.00033738      -0.00470835      -0.00516634 </v>
   <v>       0.00168207      -0.00141040      -0.00330626 </v>
   <v>      -0.00289989      -0.00174982      -0.00093928 </v>
   <v>      -0.00555081      -0.00456754       0.00012961 </v>
   <v>       0.00023536       0.00422691      -0.00153053 </v>
   <v>      -0.00088725      -0.00415571       0.00121037 </v>
   <v>       0.00494579      -0.00151631       0.00283591 </v>
   <v>       0.00424624       0.00206200      -0.00516634 </v>
   <v>       0.00296533      -0.00163647      -0.00093928 </v>
   <v>      -0.00377789       0.00018549      -0.00102628 </v>
   <v>      -0.00505690      -0.00199954       0.00050303 </v>
   <v>       0.00460359      -0.00357566       0.00095008 </v>
   <v>       0.00257587      -0.00060861       0.00145350 </v>
   <v>       0.00172831      -0.00336449      -0.00102628 </v>
   <v>       0.00426010      -0.00337964       0.00050303 </v>
   <v>       0.00079482       0.00577466       0.00095008 </v>
   <v>      -0.00076086       0.00253508       0.00145350 </v>
   <v>       0.00204958       0.00317900      -0.00102628 </v>
   <v>       0.00179260       0.00209246       0.00085467 </v>
   <v>       0.00456037       0.00045672       0.00355066 </v>
   <v>      -0.00138651      -0.00226217       0.00025139 </v>
   <v>      -0.00442525       0.00468975       0.00034347 </v>
   <v>       0.00265235      -0.00006967       0.00025139 </v>
   <v>      -0.00184882      -0.00617726       0.00034347 </v>
   <v>      -0.00126584       0.00233184       0.00025139 </v>
   <v>       0.00627407       0.00148750       0.00034347 </v>
   <v>      -0.00270843       0.00050620       0.00085467 </v>
   <v>      -0.00267571       0.00372104       0.00355066 </v>
   <v>       0.00091583      -0.00259867       0.00085467 </v>
   <v>      -0.00188466      -0.00417775       0.00355066 </v>
  </varray>
  <varray name="stress" >
   <v>       0.01215451      -0.00000000      -0.00000000 </v>
   <v>       0.00000000       0.01215451       0.00000000 </v>
   <v>       0.00000000       0.00000000      -0.27306089 </v>
  </varray>
  <energy>
   <i name="e_fr_energy">   -624.36334792 </i>
   <i name="e_wo_entrp">   -624.36334792 </i>
   <i name="e_0_energy">     -0.00000000 </i>
  </energy>
  <time name="totalsc">  936.59  944.30</time>
  <eigenvalues>
   <array>
    <dimension dim="1">band</dimension>
    <dimension dim="2">kpoint</dimension>
    <dimension dim="3">spin</dimension>
    <field>eigene</field>
    <field>occ</field>
    <set>
     <set comment="spin 1">
      <set comment="kpoint 1">
       <r>  -27.5557    1.0000 </r>
       <r>  -27.5553    1.0000 </r>
       <r>  -27.5553    1.0000 </r>
       <r>  -27.2518    1.0000 </r>
       <r>  -27.2515    1.0000 </r>
       <r>  -27.2514    1.0000 </r>
       <r>  -25.9425    1.0000 </r>
       <r>  -25.8977    1.0000 </r>
       <r>  -25.2951    1.0000 </r>
       <r>  -25.2948    1.0000 </r>
       <r>  -25.2948    1.0000 </r>
       <r>  -25.1986    1.0000 </r>
       <r>  -25.1981    1.0000 </r>
       <r>  -25.1980    1.0000 </r>
       <r>  -24.3127    1.0000 </r>
       <r>  -24.3125    1.0000 </r>
       <r>  -24.2871    1.0000 </r>
       <r>  -23.8372    1.0000 </r>
       <r>  -23.8370    1.0000 </r>
       <r>  -23.7854    1.0000 </r>
       <r>  -22.9380    1.0000 </r>
       <r>  -22.9379    1.0000 </r>
       <r>  -22.8830    1.0000 </r>
       <r>  -22.8828    1.0000 </r>
       <r>  -20.6718    1.0000 </r>
       <r>  -20.6717    1.0000 </r>
       <r>  -20.6524    1.0000 </r>
       <r>  -20.5346    1.0000 </r>
       <r>  -20.5345    1.0000 </r>
       <r>  -20.4759    1.0000 </r>
       <r>  -20.2492    1.0000 </r>
       <r>  -20.2492    1.0000 </r>
       <r>  -20.2379    1.0000 </r>
       <r>  -19.4504    1.0000 </r>
       <r>  -19.4502    1.0000 </r>
       <r>  -19.1919    1.0000 </r>
       <r>  -18.0367    1.0000 </r>
       <r>  -18.0366    1.0000 </r>
       <r>  -17.2909    1.0000 </r>
       <r>  -17.1571    1.0000 </r>
       <r>  -17.1571    1.0000 </r>
       <r>  -16.9061    1.0000 </r>
       <r>  -16.7624    1.0000 </r>
       <r>  -16.7623    1.0000 </r>
       <r>  -16.3696    1.0000 </r>
       <r>  -16.3693    1.0000 </r>
       <r>  -16.3525    1.0000 </r>
       <r>  -15.6576    1.0000 </r>
       <r>  -15.6575    1.0000 </r>
       <r>  -15.5806    1.0000 </r>
       <r>  -15.3136    1.0000 </r>
       <r>  -15.2764    1.0000 </r>
       <r>  -15.2762    1.0000 </r>
       <r>  -15.0875    1.0000 </r>
       <r>  -14.8504    1.0000 </r>
       <r>  -14.8502    1.0000 </r>
       <r>  -14.6857    1.0000 </r>
       <r>  -14.6856    1.0000 </r>
       <r>  -14.2353    1.0000 </r>
       <r>  -14.2015    1.0000 </r>
       <r>  -13.8209    1.0000 </r>
       <r>  -13.6940    1.0000 </r>
       <r>  -13.5907    1.0000 </r>
       <r>  -13.5905    1.0000 </r>
       <r>  -13.2257    1.0000 </r>
       <r>  -13.2256    1.0000 </r>
       <r>  -12.9721    1.0000 </r>
       <r>  -12.6907    1.0000 </r>
       <r>  -12.6904    1.0000 </r>
       <r>  -12.6291    1.0000 </r>
       <r>  -12.3137    1.0000 </r>
       <r>  -12.3136    1.0000 </r>
       <r>  -12.2930    1.0000 </r>
       <r>  -12.0262    1.0000 </r>
       <r>  -12.0261    1.0000 </r>
       <r>  -11.9788    1.0000 </r>
       <r>  -11.8338    1.0000 </r>
       <r>  -11.7476    1.0000 </r>
       <r>  -11.7172    1.0000 </r>
       <r>  -11.7171    1.0000 </r>
       <r>  -11.4766    1.0000 </r>
       <r>  -11.4764    1.0000 </r>
       <r>  -11.4763    1.0000 </r>
       <r>  -11.4395    1.0000 </r>
       <r>  -10.9724    1.0000 </r>
       <r>  -10.9270    1.0000 </r>
       <r>  -10.9269    1.0000 </r>
       <r>  -10.8292    1.0000 </r>
       <r>  -10.8291    1.0000 </r>
       <r>  -10.7957    1.0000 </r>
       <r>  -10.7403    1.0000 </r>
       <r>  -10.7402    1.0000 </r>
       <r>  -10.5150    1.0000 </r>
       <r>  -10.4485    1.0000 </r>
       <r>  -10.4484    1.0000 </r>
       <r>  -10.4095    1.0000 </r>
       <r>  -10.3439    1.0000 </r>
       <r>  -10.3437    1.0000 </r>
       <r>  -10.1532    1.0000 </r>
       <r>  -10.1272    1.0000 </r>
       <r>  -10.1271    1.0000 </r>
       <r>  -10.0470    1.0000 </r>
       <r>  -10.0469    1.0000 </r>
       <r>   -9.9911    1.0000 </r>
       <r>   -9.9040    1.0000 </r>
       <r>   -9.9039    1.0000 </r>
       <r>   -9.8447    1.0000 </r>
       <r>   -9.8446    1.0000 </r>
       <r>   -9.8444    1.0000 </r>
       <r>   -9.7214    1.0000 </r>
       <r>   -9.6257    1.0000 </r>
       <r>   -9.6066    1.0000 </r>
       <r>   -9.6065    1.0000 </r>
       <r>   -9.4417    1.0000 </r>
       <r>   -9.2255    1.0000 </r>
       <r>   -9.2253    1.0000 </r>
       <r>   -9.1711    1.0000 </r>
       <r>   -9.1070    1.0000 </r>
       <r>   -9.1068    1.0000 </r>
       <r>   -9.1053    1.0000 </r>
       <r>   -8.8978    1.0000 </r>
       <r>   -8.8424    1.0000 </r>
       <r>   -8.8423    1.0000 </r>
       <r>   -8.7121    1.0000 </r>
       <r>   -8.7120    1.0000 </r>
       <r>   -7.7619    1.0000 </r>
       <r>   -7.7253    1.0000 </r>
       <r>   -7.7147    1.0000 </r>
       <r>   -7.7146    1.0000 </r>
       <r>   -7.5555    1.0000 </r>
       <r>   -7.5554    1.0000 </r>
       <r>   -7.4661    1.0000 </r>
       <r>   -7.4310    1.0000 </r>
       <r>   -7.4309    1.0000 </r>
       <r>   -7.3505    1.0000 </r>
       <r>   -7.3066    1.0000 </r>
       <r>   -7.3065    1.0000 </r>
       <r>   -7.2799    1.0000 </r>
       <r>   -7.2211    1.0000 </r>
       <r>   -7.2211    1.0000 </r>
       <r>   -6.7593    1.0000 </r>
       <r>   -6.7593    1.0000 </r>
       <r>   -6.6872    1.0000 </r>
       <r>   -6.6441    1.0000 </r>
       <r>   -6.6440    1.0000 </r>
       <r>   -6.5266    1.0000 </r>
       <r>   -6.4625    1.0000 </r>
       <r>   -6.4625    1.0000 </r>
       <r>   -6.3839    1.0000 </r>
       <r>   -6.3838    1.0000 </r>
       <r>   -6.3239    1.0000 </r>
       <r>   -6.2401    1.0000 </r>
       <r>   -6.2400    1.0000 </r>
       <r>   -6.0690    1.0000 </r>
       <r>   -6.0475    1.0000 </r>
       <r>   -6.0474    1.0000 </r>
       <r>   -5.8582    1.0000 </r>
       <r>   -5.8565    1.0000 </r>
       <r>   -5.8564    1.0000 </r>
       <r>   -3.6802    0.0000 </r>
       <r>   -3.6801    0.0000 </r>
       <r>   -2.9873    0.0000 </r>
       <r>   -2.9365    0.0000 </r>
       <r>   -2.9364    0.0000 </r>
       <r>   -2.2665    0.0000 </r>
       <r>   -2.2531    0.0000 </r>
       <r>   -2.2530    0.0000 </r>
       <r>   -2.1581    0.0000 </r>
       <r>   -2.1579    0.0000 </r>
       <r>   -2.1575    0.0000 </r>
       <r>   -1.6291    0.0000 </r>
       <r>   -1.6290    0.0000 </r>
       <r>   -1.4610    0.0000 </r>
       <r>   -1.0009    0.0000 </r>
       <r>   -1.0007    0.0000 </r>
       <r>   -0.7825    0.0000 </r>
       <r>   -0.6590    0.0000 </r>
       <r>   -0.4863    0.0000 </r>
       <r>   -0.4522    0.0000 </r>
       <r>   -0.4520    0.0000 </r>
       <r>   -0.2773    0.0000 </r>
       <r>   -0.2771    0.0000 </r>
       <r>   -0.1745    0.0000 </r>
       <r>   -0.0590    0.0000 </r>
       <r>   -0.0588    0.0000 </r>
       <r>    0.0438    0.0000 </r>
       <r>    0.0440    0.0000 </r>
       <r>    0.1170    0.0000 </r>
       <r>    0.2031    0.0000 </r>
       <r>    0.4851    0.0000 </r>
       <r>    0.5556    0.0000 </r>
       <r>    0.5924    0.0000 </r>
       <r>    0.5928    0.0000 </r>
       <r>    0.6763    0.0000 </r>
       <r>    0.7223    0.0000 </r>
       <r>    0.7227    0.0000 </r>
       <r>    0.7878    0.0000 </r>
       <r>    0.8546    0.0000 </r>
       <r>    0.8548    0.0000 </r>
       <r>    0.9190    0.0000 </r>
       <r>    1.0263    0.0000 </r>
       <r>    1.0266    0.0000 </r>
       <r>    1.0887    0.0000 </r>
       <r>    1.1192    0.0000 </r>
       <r>    1.1197    0.0000 </r>
       <r>    1.1442    0.0000 </r>
       <r>    1.2198    0.0000 </r>
       <r>    1.2209    0.0000 </r>
      </set>
      <set comment="kpoint 2">
       <r>  -27.5557    1.0000 </r>
       <r>  -27.5553    1.0000 </r>
       <r>  -27.5553    1.0000 </r>
       <r>  -27.2518    1.0000 </r>
       <r>  -27.2515    1.0000 </r>
       <r>  -27.2514    1.0000 </r>
       <r>  -25.9425    1.0000 </r>
       <r>  -25.8977    1.0000 </r>
       <r>  -25.2951    1.0000 </r>
       <r>  -25.2948    1.0000 </r>
       <r>  -25.2948    1.0000 </r>
       <r>  -25.1986    1.0000 </r>
       <r>  -25.1981    1.0000 </r>
       <r>  -25.1980    1.0000 </r>
       <r>  -24.3127    1.0000 </r>
       <r>  -24.3125    1.0000 </r>
       <r>  -24.2871    1.0000 </r>
       <r>  -23.8371    1.0000 </r>
       <r>  -23.8370    1.0000 </r>
       <r>  -23.7855    1.0000 </r>
       <r>  -22.9380    1.0000 </r>
       <r>  -22.9379    1.0000 </r>
       <r>  -22.8830    1.0000 </r>
       <r>  -22.8828    1.0000 </r>
       <r>  -20.6718    1.0000 </r>
       <r>  -20.6717    1.0000 </r>
       <r>  -20.6524    1.0000 </r>
       <r>  -20.5345    1.0000 </r>
       <r>  -20.5344    1.0000 </r>
       <r>  -20.4760    1.0000 </r>
       <r>  -20.2493    1.0000 </r>
       <r>  -20.2492    1.0000 </r>
       <r>  -20.2380    1.0000 </r>
       <r>  -19.4503    1.0000 </r>
       <r>  -19.4500    1.0000 </r>
       <r>  -19.1924    1.0000 </r>
       <r>  -18.0367    1.0000 </r>
       <r>  -18.0359    1.0000 </r>
       <r>  -17.2957    1.0000 </r>
       <r>  -17.1568    1.0000 </r>
       <r>  -17.1530    1.0000 </r>
       <r>  -16.9060    1.0000 </r>
       <r>  -16.7628    1.0000 </r>
       <r>  -16.7619    1.0000 </r>
       <r>  -16.3720    1.0000 </r>
       <r>  -16.3692    1.0000 </r>
       <r>  -16.3497    1.0000 </r>
       <r>  -15.6644    1.0000 </r>
       <r>  -15.6574    1.0000 </r>
       <r>  -15.5744    1.0000 </r>
       <r>  -15.3137    1.0000 </r>
       <r>  -15.2763    1.0000 </r>
       <r>  -15.2761    1.0000 </r>
       <r>  -15.0874    1.0000 </r>
       <r>  -14.8505    1.0000 </r>
       <r>  -14.8502    1.0000 </r>
       <r>  -14.6859    1.0000 </r>
       <r>  -14.6856    1.0000 </r>
       <r>  -14.2353    1.0000 </r>
       <r>  -14.2010    1.0000 </r>
       <r>  -13.8217    1.0000 </r>
       <r>  -13.6946    1.0000 </r>
       <r>  -13.5906    1.0000 </r>
       <r>  -13.5895    1.0000 </r>
       <r>  -13.2257    1.0000 </r>
       <r>  -13.2252    1.0000 </r>
       <r>  -12.9722    1.0000 </r>
       <r>  -12.6913    1.0000 </r>
       <r>  -12.6905    1.0000 </r>
       <r>  -12.6289    1.0000 </r>
       <r>  -12.3173    1.0000 </r>
       <r>  -12.3137    1.0000 </r>
       <r>  -12.2895    1.0000 </r>
       <r>  -12.0269    1.0000 </r>
       <r>  -12.0261    1.0000 </r>
       <r>  -11.9780    1.0000 </r>
       <r>  -11.8342    1.0000 </r>
       <r>  -11.7478    1.0000 </r>
       <r>  -11.7171    1.0000 </r>
       <r>  -11.7158    1.0000 </r>
       <r>  -11.4770    1.0000 </r>
       <r>  -11.4764    1.0000 </r>
       <r>  -11.4760    1.0000 </r>
       <r>  -11.4395    1.0000 </r>
       <r>  -10.9756    1.0000 </r>
       <r>  -10.9269    1.0000 </r>
       <r>  -10.9258    1.0000 </r>
       <r>  -10.8293    1.0000 </r>
       <r>  -10.8277    1.0000 </r>
       <r>  -10.7957    1.0000 </r>
       <r>  -10.7403    1.0000 </r>
       <r>  -10.7401    1.0000 </r>
       <r>  -10.5149    1.0000 </r>
       <r>  -10.4486    1.0000 </r>
       <r>  -10.4484    1.0000 </r>
       <r>  -10.4096    1.0000 </r>
       <r>  -10.3439    1.0000 </r>
       <r>  -10.3436    1.0000 </r>
       <r>  -10.1532    1.0000 </r>
       <r>  -10.1272    1.0000 </r>
       <r>  -10.1268    1.0000 </r>
       <r>  -10.0470    1.0000 </r>
       <r>  -10.0469    1.0000 </r>
       <r>   -9.9912    1.0000 </r>
       <r>   -9.9040    1.0000 </r>
       <r>   -9.9039    1.0000 </r>
       <r>   -9.8456    1.0000 </r>
       <r>   -9.8445    1.0000 </r>
       <r>   -9.8435    1.0000 </r>
       <r>   -9.7217    1.0000 </r>
       <r>   -9.6262    1.0000 </r>
       <r>   -9.6065    1.0000 </r>
       <r>   -9.6064    1.0000 </r>
       <r>   -9.4414    1.0000 </r>
       <r>   -9.2259    1.0000 </r>
       <r>   -9.2253    1.0000 </r>
       <r>   -9.1712    1.0000 </r>
       <r>   -9.1068    1.0000 </r>
       <r>   -9.1062    1.0000 </r>
       <r>   -9.1051    1.0000 </r>
       <r>   -8.8978    1.0000 </r>
       <r>   -8.8424    1.0000 </r>
       <r>   -8.8423    1.0000 </r>
       <r>   -8.7126    1.0000 </r>
       <r>   -8.7120    1.0000 </r>
       <r>   -7.7620    1.0000 </r>
       <r>   -7.7261    1.0000 </r>
       <r>   -7.7147    1.0000 </r>
       <r>   -7.7135    1.0000 </r>
       <r>   -7.5556    1.0000 </r>
       <r>   -7.5554    1.0000 </r>
       <r>   -7.4661    1.0000 </r>
       <r>   -7.4310    1.0000 </r>
       <r>   -7.4309    1.0000 </r>
       <r>   -7.3505    1.0000 </r>
       <r>   -7.3066    1.0000 </r>
       <r>   -7.3065    1.0000 </r>
       <r>   -7.2799    1.0000 </r>
       <r>   -7.2214    1.0000 </r>
       <r>   -7.2211    1.0000 </r>
       <r>   -6.7593    1.0000 </r>
       <r>   -6.7592    1.0000 </r>
       <r>   -6.6876    1.0000 </r>
       <r>   -6.6441    1.0000 </r>
       <r>   -6.6436    1.0000 </r>
       <r>   -6.5266    1.0000 </r>
       <r>   -6.4625    1.0000 </r>
       <r>   -6.4624    1.0000 </r>
       <r>   -6.3839    1.0000 </r>
       <r>   -6.3839    1.0000 </r>
       <r>   -6.3238    1.0000 </r>
       <r>   -6.2401    1.0000 </r>
       <r>   -6.2400    1.0000 </r>
       <r>   -6.0690    1.0000 </r>
       <r>   -6.0475    1.0000 </r>
       <r>   -6.0474    1.0000 </r>
       <r>   -5.8582    1.0000 </r>
       <r>   -5.8565    1.0000 </r>
       <r>   -5.8564    1.0000 </r>
       <r>   -3.6801    0.0000 </r>
       <r>   -3.6797    0.0000 </r>
       <r>   -3.0011    0.0000 </r>
       <r>   -2.9364    0.0000 </r>
       <r>   -2.9223    0.0000 </r>
       <r>   -2.2665    0.0000 </r>
       <r>   -2.2532    0.0000 </r>
       <r>   -2.2530    0.0000 </r>
       <r>   -2.1583    0.0000 </r>
       <r>   -2.1578    0.0000 </r>
       <r>   -2.1572    0.0000 </r>
       <r>   -1.6342    0.0000 </r>
       <r>   -1.6291    0.0000 </r>
       <r>   -1.4565    0.0000 </r>
       <r>   -1.0009    0.0000 </r>
       <r>   -1.0007    0.0000 </r>
       <r>   -0.7821    0.0000 </r>
       <r>   -0.6588    0.0000 </r>
       <r>   -0.4864    0.0000 </r>
       <r>   -0.4525    0.0000 </r>
       <r>   -0.4521    0.0000 </r>
       <r>   -0.2776    0.0000 </r>
       <r>   -0.2771    0.0000 </r>
       <r>   -0.1736    0.0000 </r>
       <r>   -0.0589    0.0000 </r>
       <r>   -0.0587    0.0000 </r>
       <r>    0.0428    0.0000 </r>
       <r>    0.0440    0.0000 </r>
       <r>    0.1171    0.0000 </r>
       <r>    0.2027    0.0000 </r>
       <r>    0.4850    0.0000 </r>
       <r>    0.5540    0.0000 </r>
       <r>    0.5926    0.0000 </r>
       <r>    0.5941    0.0000 </r>
       <r>    0.6767    0.0000 </r>
       <r>    0.7218    0.0000 </r>
       <r>    0.7220    0.0000 </r>
       <r>    0.7883    0.0000 </r>
       <r>    0.8553    0.0000 </r>
       <r>    0.8555    0.0000 </r>
       <r>    0.9192    0.0000 </r>
       <r>    1.0268    0.0000 </r>
       <r>    1.0275    0.0000 </r>
       <r>    1.0856    0.0000 </r>
       <r>    1.1167    0.0000 </r>
       <r>    1.1210    0.0000 </r>
       <r>    1.1471    0.0000 </r>
       <r>    1.2203    0.0000 </r>
       <r>    1.2211    0.0000 </r>
      </set>
      <set comment="kpoint 3">
       <r>  -27.5557    1.0000 </r>
       <r>  -27.5553    1.0000 </r>
       <r>  -27.5553    1.0000 </r>
       <r>  -27.2518    1.0000 </r>
       <r>  -27.2515    1.0000 </r>
       <r>  -27.2514    1.0000 </r>
       <r>  -25.9425    1.0000 </r>
       <r>  -25.8977    1.0000 </r>
       <r>  -25.2951    1.0000 </r>
       <r>  -25.2948    1.0000 </r>
       <r>  -25.2948    1.0000 </r>
       <r>  -25.1986    1.0000 </r>
       <r>  -25.1981    1.0000 </r>
       <r>  -25.1980    1.0000 </r>
       <r>  -24.3126    1.0000 </r>
       <r>  -24.3125    1.0000 </r>
       <r>  -24.2873    1.0000 </r>
       <r>  -23.8371    1.0000 </r>
       <r>  -23.8368    1.0000 </r>
       <r>  -23.7857    1.0000 </r>
       <r>  -22.9379    1.0000 </r>
       <r>  -22.9378    1.0000 </r>
       <r>  -22.8831    1.0000 </r>
       <r>  -22.8828    1.0000 </r>
       <r>  -20.6718    1.0000 </r>
       <r>  -20.6718    1.0000 </r>
       <r>  -20.6526    1.0000 </r>
       <r>  -20.5344    1.0000 </r>
       <r>  -20.5341    1.0000 </r>
       <r>  -20.4762    1.0000 </r>
       <r>  -20.2494    1.0000 </r>
       <r>  -20.2493    1.0000 </r>
       <r>  -20.2380    1.0000 </r>
       <r>  -19.4502    1.0000 </r>
       <r>  -19.4490    1.0000 </r>
       <r>  -19.1938    1.0000 </r>
       <r>  -18.0368    1.0000 </r>
       <r>  -18.0335    1.0000 </r>
       <r>  -17.3084    1.0000 </r>
       <r>  -17.1562    1.0000 </r>
       <r>  -17.1421    1.0000 </r>
       <r>  -16.9058    1.0000 </r>
       <r>  -16.7641    1.0000 </r>
       <r>  -16.7607    1.0000 </r>
       <r>  -16.3772    1.0000 </r>
       <r>  -16.3688    1.0000 </r>
       <r>  -16.3437    1.0000 </r>
       <r>  -15.6805    1.0000 </r>
       <r>  -15.6572    1.0000 </r>
       <r>  -15.5598    1.0000 </r>
       <r>  -15.3139    1.0000 </r>
       <r>  -15.2763    1.0000 </r>
       <r>  -15.2755    1.0000 </r>
       <r>  -15.0873    1.0000 </r>
       <r>  -14.8511    1.0000 </r>
       <r>  -14.8504    1.0000 </r>
       <r>  -14.6867    1.0000 </r>
       <r>  -14.6855    1.0000 </r>
       <r>  -14.2352    1.0000 </r>
       <r>  -14.1996    1.0000 </r>
       <r>  -13.8242    1.0000 </r>
       <r>  -13.6964    1.0000 </r>
       <r>  -13.5907    1.0000 </r>
       <r>  -13.5863    1.0000 </r>
       <r>  -13.2260    1.0000 </r>
       <r>  -13.2238    1.0000 </r>
       <r>  -12.9722    1.0000 </r>
       <r>  -12.6931    1.0000 </r>
       <r>  -12.6907    1.0000 </r>
       <r>  -12.6282    1.0000 </r>
       <r>  -12.3247    1.0000 </r>
       <r>  -12.3139    1.0000 </r>
       <r>  -12.2824    1.0000 </r>
       <r>  -12.0287    1.0000 </r>
       <r>  -12.0261    1.0000 </r>
       <r>  -11.9757    1.0000 </r>
       <r>  -11.8354    1.0000 </r>
       <r>  -11.7485    1.0000 </r>
       <r>  -11.7170    1.0000 </r>
       <r>  -11.7119    1.0000 </r>
       <r>  -11.4774    1.0000 </r>
       <r>  -11.4765    1.0000 </r>
       <r>  -11.4754    1.0000 </r>
       <r>  -11.4394    1.0000 </r>
       <r>  -10.9844    1.0000 </r>
       <r>  -10.9266    1.0000 </r>
       <r>  -10.9233    1.0000 </r>
       <r>  -10.8297    1.0000 </r>
       <r>  -10.8238    1.0000 </r>
       <r>  -10.7956    1.0000 </r>
       <r>  -10.7403    1.0000 </r>
       <r>  -10.7393    1.0000 </r>
       <r>  -10.5146    1.0000 </r>
       <r>  -10.4489    1.0000 </r>
       <r>  -10.4483    1.0000 </r>
       <r>  -10.4096    1.0000 </r>
       <r>  -10.3441    1.0000 </r>
       <r>  -10.3434    1.0000 </r>
       <r>  -10.1533    1.0000 </r>
       <r>  -10.1271    1.0000 </r>
       <r>  -10.1261    1.0000 </r>
       <r>  -10.0469    1.0000 </r>
       <r>  -10.0469    1.0000 </r>
       <r>   -9.9915    1.0000 </r>
       <r>   -9.9041    1.0000 </r>
       <r>   -9.9038    1.0000 </r>
       <r>   -9.8466    1.0000 </r>
       <r>   -9.8445    1.0000 </r>
       <r>   -9.8425    1.0000 </r>
       <r>   -9.7226    1.0000 </r>
       <r>   -9.6276    1.0000 </r>
       <r>   -9.6065    1.0000 </r>
       <r>   -9.6058    1.0000 </r>
       <r>   -9.4404    1.0000 </r>
       <r>   -9.2271    1.0000 </r>
       <r>   -9.2253    1.0000 </r>
       <r>   -9.1716    1.0000 </r>
       <r>   -9.1068    1.0000 </r>
       <r>   -9.1050    1.0000 </r>
       <r>   -9.1035    1.0000 </r>
       <r>   -8.8978    1.0000 </r>
       <r>   -8.8425    1.0000 </r>
       <r>   -8.8422    1.0000 </r>
       <r>   -8.7141    1.0000 </r>
       <r>   -8.7121    1.0000 </r>
       <r>   -7.7621    1.0000 </r>
       <r>   -7.7279    1.0000 </r>
       <r>   -7.7147    1.0000 </r>
       <r>   -7.7106    1.0000 </r>
       <r>   -7.5558    1.0000 </r>
       <r>   -7.5554    1.0000 </r>
       <r>   -7.4660    1.0000 </r>
       <r>   -7.4310    1.0000 </r>
       <r>   -7.4309    1.0000 </r>
       <r>   -7.3503    1.0000 </r>
       <r>   -7.3067    1.0000 </r>
       <r>   -7.3065    1.0000 </r>
       <r>   -7.2799    1.0000 </r>
       <r>   -7.2220    1.0000 </r>
       <r>   -7.2212    1.0000 </r>
       <r>   -6.7593    1.0000 </r>
       <r>   -6.7591    1.0000 </r>
       <r>   -6.6887    1.0000 </r>
       <r>   -6.6441    1.0000 </r>
       <r>   -6.6423    1.0000 </r>
       <r>   -6.5268    1.0000 </r>
       <r>   -6.4624    1.0000 </r>
       <r>   -6.4623    1.0000 </r>
       <r>   -6.3844    1.0000 </r>
       <r>   -6.3840    1.0000 </r>
       <r>   -6.3234    1.0000 </r>
       <r>   -6.2401    1.0000 </r>
       <r>   -6.2400    1.0000 </r>
       <r>   -6.0690    1.0000 </r>
       <r>   -6.0475    1.0000 </r>
       <r>   -6.0474    1.0000 </r>
       <r>   -5.8582    1.0000 </r>
       <r>   -5.8565    1.0000 </r>
       <r>   -5.8564    1.0000 </r>
       <r>   -3.6801    0.0000 </r>
       <r>   -3.6781    0.0000 </r>
       <r>   -3.0266    0.0000 </r>
       <r>   -2.9364    0.0000 </r>
       <r>   -2.8959    0.0000 </r>
       <r>   -2.2667    0.0000 </r>
       <r>   -2.2536    0.0000 </r>
       <r>   -2.2530    0.0000 </r>
       <r>   -2.1587    0.0000 </r>
       <r>   -2.1577    0.0000 </r>
       <r>   -2.1567    0.0000 </r>
       <r>   -1.6482    0.0000 </r>
       <r>   -1.6291    0.0000 </r>
       <r>   -1.4442    0.0000 </r>
       <r>   -1.0010    0.0000 </r>
       <r>   -1.0007    0.0000 </r>
       <r>   -0.7809    0.0000 </r>
       <r>   -0.6584    0.0000 </r>
       <r>   -0.4869    0.0000 </r>
       <r>   -0.4537    0.0000 </r>
       <r>   -0.4522    0.0000 </r>
       <r>   -0.2784    0.0000 </r>
       <r>   -0.2772    0.0000 </r>
       <r>   -0.1709    0.0000 </r>
       <r>   -0.0588    0.0000 </r>
       <r>   -0.0584    0.0000 </r>
       <r>    0.0397    0.0000 </r>
       <r>    0.0440    0.0000 </r>
       <r>    0.1172    0.0000 </r>
       <r>    0.2015    0.0000 </r>
       <r>    0.4846    0.0000 </r>
       <r>    0.5499    0.0000 </r>
       <r>    0.5930    0.0000 </r>
       <r>    0.5976    0.0000 </r>
       <r>    0.6777    0.0000 </r>
       <r>    0.7199    0.0000 </r>
       <r>    0.7206    0.0000 </r>
       <r>    0.7900    0.0000 </r>
       <r>    0.8570    0.0000 </r>
       <r>    0.8580    0.0000 </r>
       <r>    0.9201    0.0000 </r>
       <r>    1.0279    0.0000 </r>
       <r>    1.0303    0.0000 </r>
       <r>    1.0779    0.0000 </r>
       <r>    1.1111    0.0000 </r>
       <r>    1.1235    0.0000 </r>
       <r>    1.1535    0.0000 </r>
       <r>    1.2191    0.0000 </r>
       <r>    1.2246    0.0000 </r>
      </set>
      <set comment="kpoint 4">
       <r>  -27.5557    1.0000 </r>
       <r>  -27.5553    1.0000 </r>
       <r>  -27.5553    1.0000 </r>
       <r>  -27.2518    1.0000 </r>
       <r>  -27.2515    1.0000 </r>
       <r>  -27.2514    1.0000 </r>
       <r>  -25.9425    1.0000 </r>
       <r>  -25.8977    1.0000 </r>
       <r>  -25.2951    1.0000 </r>
       <r>  -25.2948    1.0000 </r>
       <r>  -25.2948    1.0000 </r>
       <r>  -25.1986    1.0000 </r>
       <r>  -25.1981    1.0000 </r>
       <r>  -25.1980    1.0000 </r>
       <r>  -24.3125    1.0000 </r>
       <r>  -24.3123    1.0000 </r>
       <r>  -24.2875    1.0000 </r>
       <r>  -23.8370    1.0000 </r>
       <r>  -23.8364    1.0000 </r>
       <r>  -23.7861    1.0000 </r>
       <r>  -22.9379    1.0000 </r>
       <r>  -22.9376    1.0000 </r>
       <r>  -22.8832    1.0000 </r>
       <r>  -22.8829    1.0000 </r>
       <r>  -20.6719    1.0000 </r>
       <r>  -20.6718    1.0000 </r>
       <r>  -20.6527    1.0000 </r>
       <r>  -20.5342    1.0000 </r>
       <r>  -20.5335    1.0000 </r>
       <r>  -20.4765    1.0000 </r>
       <r>  -20.2495    1.0000 </r>
       <r>  -20.2494    1.0000 </r>
       <r>  -20.2381    1.0000 </r>
       <r>  -19.4502    1.0000 </r>
       <r>  -19.4472    1.0000 </r>
       <r>  -19.1962    1.0000 </r>
       <r>  -18.0370    1.0000 </r>
       <r>  -18.0296    1.0000 </r>
       <r>  -17.3265    1.0000 </r>
       <r>  -17.1551    1.0000 </r>
       <r>  -17.1272    1.0000 </r>
       <r>  -16.9055    1.0000 </r>
       <r>  -16.7662    1.0000 </r>
       <r>  -16.7587    1.0000 </r>
       <r>  -16.3832    1.0000 </r>
       <r>  -16.3682    1.0000 </r>
       <r>  -16.3365    1.0000 </r>
       <r>  -15.7010    1.0000 </r>
       <r>  -15.6569    1.0000 </r>
       <r>  -15.5421    1.0000 </r>
       <r>  -15.3142    1.0000 </r>
       <r>  -15.2764    1.0000 </r>
       <r>  -15.2746    1.0000 </r>
       <r>  -15.0871    1.0000 </r>
       <r>  -14.8519    1.0000 </r>
       <r>  -14.8507    1.0000 </r>
       <r>  -14.6880    1.0000 </r>
       <r>  -14.6853    1.0000 </r>
       <r>  -14.2352    1.0000 </r>
       <r>  -14.1972    1.0000 </r>
       <r>  -13.8282    1.0000 </r>
       <r>  -13.6990    1.0000 </r>
       <r>  -13.5908    1.0000 </r>
       <r>  -13.5811    1.0000 </r>
       <r>  -13.2265    1.0000 </r>
       <r>  -13.2216    1.0000 </r>
       <r>  -12.9723    1.0000 </r>
       <r>  -12.6960    1.0000 </r>
       <r>  -12.6911    1.0000 </r>
       <r>  -12.6273    1.0000 </r>
       <r>  -12.3332    1.0000 </r>
       <r>  -12.3142    1.0000 </r>
       <r>  -12.2745    1.0000 </r>
       <r>  -12.0314    1.0000 </r>
       <r>  -12.0261    1.0000 </r>
       <r>  -11.9724    1.0000 </r>
       <r>  -11.8373    1.0000 </r>
       <r>  -11.7493    1.0000 </r>
       <r>  -11.7167    1.0000 </r>
[...]
       <r>   -27.3057     0.0000     6.0000 </r>
       <r>   -27.1998    56.7061    12.0000 </r>
       <r>   -27.0940     0.0000    12.0000 </r>
       <r>   -26.9882     0.0000    12.0000 </r>
       <r>   -26.8824     0.0000    12.0000 </r>
       <r>   -26.7766     0.0000    12.0000 </r>
       <r>   -26.6708     0.0000    12.0000 </r>
       <r>   -26.5650     0.0000    12.0000 </r>
       <r>   -26.4592     0.0000    12.0000 </r>
       <r>   -26.3534     0.0000    12.0000 </r>
       <r>   -26.2476     0.0000    12.0000 </r>
       <r>   -26.1418     0.0000    12.0000 </r>
       <r>   -26.0359     0.0000    12.0000 </r>
       <r>   -25.9301    18.1383    13.9192 </r>
       <r>   -25.8243    18.9020    16.0000 </r>
       <r>   -25.7185     0.0000    16.0000 </r>
       <r>   -25.6127     0.0000    16.0000 </r>
       <r>   -25.5069     0.0000    16.0000 </r>
       <r>   -25.4011     0.0000    16.0000 </r>
       <r>   -25.2953    27.1680    18.8746 </r>
       <r>   -25.1895    50.5299    27.3465 </r>
       <r>   -25.0837     0.0000    28.0000 </r>
       <r>   -24.9779     0.0000    28.0000 </r>
       <r>   -24.8721     0.0000    28.0000 </r>
       <r>   -24.7662     0.0000    28.0000 </r>
       <r>   -24.6604     0.0000    28.0000 </r>
       <r>   -24.5546     0.0000    28.0000 </r>
       <r>   -24.4488     0.0000    28.0000 </r>
       <r>   -24.3430     0.0002    28.0000 </r>
       <r>   -24.2372    56.7059    34.0000 </r>
       <r>   -24.1314     0.0000    34.0000 </r>
       <r>   -24.0256     0.0000    34.0000 </r>
       <r>   -23.9198     0.0000    34.0000 </r>
       <r>   -23.8140    35.5581    37.7624 </r>
       <r>   -23.7082     4.0952    40.0000 </r>
       <r>   -23.6023     0.0000    40.0000 </r>
       <r>   -23.4965     0.0000    40.0000 </r>
       <r>   -23.3907     0.0000    40.0000 </r>
       <r>   -23.2849     0.0000    40.0000 </r>
       <r>   -23.1791     0.0000    40.0000 </r>
       <r>   -23.0733     0.0000    40.0000 </r>
       <r>   -22.9675     0.0003    40.0000 </r>
       <r>   -22.8617    75.5749    47.9965 </r>
       <r>   -22.7559     0.0000    48.0000 </r>
       <r>   -22.6501     0.0000    48.0000 </r>
       <r>   -22.5443     0.0000    48.0000 </r>
       <r>   -22.4385     0.0000    48.0000 </r>
       <r>   -22.3326     0.0000    48.0000 </r>
       <r>   -22.2268     0.0000    48.0000 </r>
       <r>   -22.1210     0.0000    48.0000 </r>
       <r>   -22.0152     0.0000    48.0000 </r>
       <r>   -21.9094     0.0000    48.0000 </r>
       <r>   -21.8036     0.0000    48.0000 </r>
       <r>   -21.6978     0.0000    48.0000 </r>
       <r>   -21.5920     0.0000    48.0000 </r>
       <r>   -21.4862     0.0000    48.0000 </r>
       <r>   -21.3804     0.0000    48.0000 </r>
       <r>   -21.2746     0.0000    48.0000 </r>
       <r>   -21.1688     0.0000    48.0000 </r>
       <r>   -21.0629     0.0000    48.0000 </r>
       <r>   -20.9571     0.0000    48.0000 </r>
       <r>   -20.8513     0.0000    48.0000 </r>
       <r>   -20.7455     0.0000    48.0000 </r>
       <r>   -20.6397    56.4765    53.9757 </r>
       <r>   -20.5339     7.9384    54.8399 </r>
       <r>   -20.4281    18.9020    60.0000 </r>
       <r>   -20.3223     0.0000    60.0000 </r>
       <r>   -20.2165    56.6942    65.9987 </r>
       <r>   -20.1107     0.0000    66.0000 </r>
       <r>   -20.0049     0.0000    66.0000 </r>
       <r>   -19.8990     0.0000    66.0000 </r>
       <r>   -19.7932     0.0000    66.0000 </r>
       <r>   -19.6874     0.0000    66.0000 </r>
       <r>   -19.5816     0.0000    66.0000 </r>
       <r>   -19.4758     0.0016    66.0002 </r>
       <r>   -19.3700    27.4009    69.2660 </r>
       <r>   -19.2642    12.3594    71.1077 </r>
       <r>   -19.1584     6.6157    72.0000 </r>
       <r>   -19.0526     0.0000    72.0000 </r>
       <r>   -18.9468     0.0000    72.0000 </r>
       <r>   -18.8410     0.0000    72.0000 </r>
       <r>   -18.7352     0.0000    72.0000 </r>
       <r>   -18.6293     0.0000    72.0000 </r>
       <r>   -18.5235     0.0000    72.0000 </r>
       <r>   -18.4177     0.0000    72.0000 </r>
       <r>   -18.3119     0.0000    72.0000 </r>
       <r>   -18.2061     0.0000    72.0000 </r>
       <r>   -18.1003     0.0000    72.0000 </r>
       <r>   -17.9945    23.5733    74.4943 </r>
       <r>   -17.8887     3.1821    74.9700 </r>
       <r>   -17.7829     6.7797    75.8507 </r>
       <r>   -17.6771     4.4945    76.4756 </r>
       <r>   -17.5713     4.4738    77.1400 </r>
       <r>   -17.4654     2.0844    77.4206 </r>
       <r>   -17.3596     1.7635    77.6866 </r>
       <r>   -17.2538     2.2052    78.0000 </r>
       <r>   -17.1480     4.9647    78.5253 </r>
       <r>   -17.0422    12.3979    80.5452 </r>
       <r>   -16.9364    12.6013    82.0000 </r>
       <r>   -16.8306    27.5600    84.9161 </r>
       <r>   -16.7248    12.8043    86.6215 </r>
       <r>   -16.6190    10.7176    87.9673 </r>
       <r>   -16.5132     0.0000    88.0000 </r>
       <r>   -16.4074    14.4523    89.5292 </r>
       <r>   -16.3016    25.2290    92.4694 </r>
       <r>   -16.1957     4.2723    93.0854 </r>
       <r>   -16.0899     4.9702    94.0592 </r>
       <r>   -15.9841     6.6806    95.0069 </r>
       <r>   -15.8783     2.3477    95.3151 </r>
       <r>   -15.7725     2.0631    95.5850 </r>
       <r>   -15.6667     2.6473    95.9468 </r>
       <r>   -15.5609     1.4324    98.1516 </r>
       <r>   -15.4551     2.7705    98.5265 </r>
       <r>   -15.3493    11.1981    99.8182 </r>
       <r>   -15.2435    35.2887   104.9005 </r>
       <r>   -15.1377     0.0000   106.0000 </r>
       <r>   -15.0318    18.9020   108.0000 </r>
       <r>   -14.9260     0.0000   108.0000 </r>
       <r>   -14.8202    37.8040   112.0000 </r>
       <r>   -14.7144    10.8265   113.1455 </r>
       <r>   -14.6086    21.1071   116.0000 </r>
       <r>   -14.5028     0.0000   116.0000 </r>
       <r>   -14.3970     0.0000   116.0000 </r>
       <r>   -14.2912     0.0000   116.0000 </r>
       <r>   -14.1854    22.5776   118.3889 </r>
       <r>   -14.0796    11.2962   119.8286 </r>
       <r>   -13.9738     4.3289   120.4580 </r>
       <r>   -13.8680     4.3985   121.4654 </r>
       <r>   -13.7621     3.4669   122.0002 </r>
       <r>   -13.6563    13.2310   124.0000 </r>
       <r>   -13.5505    23.1598   126.4505 </r>
       <r>   -13.4447     7.6908   127.4138 </r>
       <r>   -13.3389     1.8902   128.0000 </r>
       <r>   -13.2331    14.5094   129.5352 </r>
       <r>   -13.1273    14.8065   132.0000 </r>
       <r>   -13.0215     0.0000   132.0000 </r>
       <r>   -12.9157    14.0148   133.4829 </r>
       <r>   -12.8099     3.0585   134.3236 </r>
       <r>   -12.7041    13.3021   136.4408 </r>
       <r>   -12.5982    18.4212   139.9491 </r>
       <r>   -12.4924     0.0000   140.0000 </r>
       <r>   -12.3866    12.7841   141.3527 </r>
       <r>   -12.2808    24.5746   144.1669 </r>
       <r>   -12.1750    15.4352   145.9998 </r>
       <r>   -12.0692     4.1642   146.4406 </r>
       <r>   -11.9634    26.2281   150.3418 </r>
       <r>   -11.8576    24.2717   153.2682 </r>
       <r>   -11.7518     9.8643   155.0437 </r>
       <r>   -11.6460    24.3291   158.5742 </r>
       <r>   -11.5402     7.1044   159.4517 </r>
       <r>   -11.4344    61.7294   166.5315 </r>
       <r>   -11.3285     8.8210   168.0000 </r>
       <r>   -11.2227     8.9107   169.0095 </r>
       <r>   -11.1169     2.1928   169.3653 </r>
       <r>   -11.0111     2.7228   169.7214 </r>
       <r>   -10.9053    28.8194   172.8827 </r>
       <r>   -10.7995    36.1670   177.8268 </r>
       <r>   -10.6937    47.7788   183.5554 </r>
       <r>   -10.5879     0.0000   184.0000 </r>
       <r>   -10.4821    19.5984   186.0737 </r>
       <r>   -10.3763    43.5754   192.0107 </r>
       <r>   -10.2705    25.2026   196.0000 </r>
       <r>   -10.1647     0.3572   196.0378 </r>
       <r>   -10.0588    39.1864   202.1463 </r>
       <r>    -9.9530    23.3124   208.0000 </r>
       <r>    -9.8472    53.5397   213.6650 </r>
       <r>    -9.7414    13.7620   219.4561 </r>
       <r>    -9.6356    12.8095   221.3554 </r>
       <r>    -9.5298    25.5172   226.0000 </r>
       <r>    -9.4240     4.7612   226.5038 </r>
       <r>    -9.3182    14.6631   228.3848 </r>
       <r>    -9.2124    26.7694   231.8991 </r>
       <r>    -9.1066    30.6004   235.2378 </r>
       <r>    -9.0008     5.0530   238.9680 </r>
       <r>    -8.8949    21.5267   241.7444 </r>
       <r>    -8.7891    47.9734   247.0760 </r>
       <r>    -8.6833    25.5176   250.0000 </r>
       <r>    -8.5775     0.0000   250.0000 </r>
       <r>    -8.4717     0.0000   250.0000 </r>
       <r>    -8.3659     0.0000   250.0000 </r>
       <r>    -8.2601     0.0000   250.0000 </r>
       <r>    -8.1543     0.0000   250.0000 </r>
       <r>    -8.0485     0.0000   250.0000 </r>
       <r>    -7.9427     0.0000   250.0000 </r>
       <r>    -7.8369     0.0000   250.0000 </r>
       <r>    -7.7311    34.5230   253.6528 </r>
       <r>    -7.6252    12.0238   257.5056 </r>
       <r>    -7.5194    37.8041   262.0000 </r>
       <r>    -7.4136    56.2251   267.9491 </r>
       <r>    -7.3078    41.9582   272.4395 </r>
       <r>    -7.2020    56.6737   279.9966 </r>
       <r>    -7.0962     0.0000   280.0000 </r>
       <r>    -6.9904     0.0000   280.0000 </r>
       <r>    -6.8846     0.0000   280.0000 </r>
       <r>    -6.7788     0.0496   280.0053 </r>
       <r>    -6.6730    30.8356   285.9960 </r>
       <r>    -6.5672    37.8036   290.0000 </r>
       <r>    -6.4613    31.5144   293.3345 </r>
       <r>    -6.3555    37.8039   300.0000 </r>
       <r>    -6.2497    24.0675   302.5465 </r>
       <r>    -6.1439     0.0000   306.0000 </r>
       <r>    -6.0381    53.5273   311.6636 </r>
       <r>    -5.9323     0.0000   312.0000 </r>
       <r>    -5.8265    56.7056   317.9999 </r>
       <r>    -5.7207     0.0000   318.0000 </r>
       <r>    -5.6149     0.0000   318.0000 </r>
       <r>    -5.5091     0.0000   318.0000 </r>
       <r>    -5.4033     0.0000   318.0000 </r>
       <r>    -5.2975     0.0000   318.0000 </r>
       <r>    -5.1916     0.0000   318.0000 </r>
       <r>    -5.0858     0.0000   318.0000 </r>
       <r>    -4.9800     0.0000   318.0000 </r>
       <r>    -4.8742     0.0000   318.0000 </r>
       <r>    -4.7684     0.0000   318.0000 </r>
       <r>    -4.6626     0.0000   318.0000 </r>
       <r>    -4.5568     0.0000   318.0000 </r>
       <r>    -4.4510     0.0000   318.0000 </r>
       <r>    -4.3452     0.0000   318.0000 </r>
       <r>    -4.2394     0.0000   318.0000 </r>
       <r>    -4.1336     0.0000   318.0000 </r>
       <r>    -4.0277     0.0000   318.0000 </r>
       <r>    -3.9219     0.0000   318.0000 </r>
       <r>    -3.8161     0.0000   318.0000 </r>
       <r>    -3.7103     0.0002   318.0000 </r>
       <r>    -3.6045    26.6882   320.8239 </r>
       <r>    -3.4987     9.7398   321.9972 </r>
       <r>    -3.3929     5.3852   322.5698 </r>
       <r>    -3.2871     2.3479   323.2151 </r>
       <r>    -3.1813     1.8346   323.4941 </r>
       <r>    -3.0755     1.5553   323.7312 </r>
       <r>    -2.9697     1.8863   323.9996 </r>
       <r>    -2.8639    21.0196   326.2241 </r>
       <r>    -2.7580     1.6014   326.4361 </r>
       <r>    -2.6522     1.4688   326.6554 </r>
       <r>    -2.5464     1.7452   326.8847 </r>
       <r>    -2.4406     5.4269   327.5075 </r>
       <r>    -2.3348     5.6144   328.2607 </r>
       <r>    -2.2290    48.1658   333.9964 </r>
       <r>    -2.1232    56.6372   339.9927 </r>
       <r>    -2.0174     5.2269   340.5531 </r>
       <r>    -1.9116     2.2763   341.2075 </r>
       <r>    -1.8058     1.7458   341.4514 </r>
       <r>    -1.7000     1.8831   341.6993 </r>
       <r>    -1.5941    21.1073   344.0000 </r>
       <r>    -1.4883     0.0000   344.0000 </r>
       <r>    -1.3825     3.3860   344.3583 </r>
       <r>    -1.2767     2.6223   344.7108 </r>
       <r>    -1.1709    11.3410   346.0000 </r>
       <r>    -1.0651     0.0000   346.0000 </r>
       <r>    -0.9593    37.8041   350.0000 </r>
       <r>    -0.8535     0.0000   350.0000 </r>
       <r>    -0.7477     5.7926   350.6129 </r>
       <r>    -0.6419    22.2251   353.1516 </r>
       <r>    -0.5361     2.6821   354.2838 </r>
       <r>    -0.4303    35.2765   359.9992 </r>
       <r>    -0.3244     0.0000   360.0000 </r>
       <r>    -0.2186    38.8388   364.1095 </r>
       <r>    -0.1128    14.7122   365.9900 </r>
       <r>    -0.0070    30.5987   369.7043 </r>
       <r>     0.0988    36.4210   374.4537 </r>
       <r>     0.2046     8.8220   377.9001 </r>
       <r>     0.3104     0.0000   378.0000 </r>
       <r>     0.4162     1.5668   378.1658 </r>
       <r>     0.5220    22.3516   381.5317 </r>
       <r>     0.6278    33.9462   385.7251 </r>
       <r>     0.7336    44.3045   390.6878 </r>
       <r>     0.8394    12.7832   392.8192 </r>
       <r>     0.9453    41.2603   398.3324 </r>
       <r>     1.0511    45.8323   404.0161 </r>
       <r>     1.1569    44.7491   410.6349 </r>
       <r>     1.2627    31.9770   414.6168 </r>
       <r>     1.3685     2.2052   416.0000 </r>
       <r>     1.4743     0.0000   416.0000 </r>
       <r>     1.5801     0.0000   416.0000 </r>
       <r>     1.6859     0.0000   416.0000 </r>
       <r>     1.7917     0.0000   416.0000 </r>
       <r>     1.8975     0.0000   416.0000 </r>
       <r>     2.0033     0.0000   416.0000 </r>
       <r>     2.1092     0.0000   416.0000 </r>
       <r>     2.2150     0.0000   416.0000 </r>
       <r>     2.3208     0.0000   416.0000 </r>
       <r>     2.4266     0.0000   416.0000 </r>
       <r>     2.5324     0.0000   416.0000 </r>
       <r>     2.6382     0.0000   416.0000 </r>
       <r>     2.7440     0.0000   416.0000 </r>
      </set>
     </set>
    </array>
   </total>
  </dos>
 </calculation>
 <structure name="finalpos" >
  <crystal>
   <varray name="basis" >
    <v>      21.68726421       0.00000001       0.00000000 </v>
    <v>     -10.84363211      18.78172174       0.00000000 </v>
    <v>       0.00000000       0.00000000      20.00000000 </v>
   </varray>
   <i name="volume">   8146.48323516 </i>
   <varray name="rec_basis" >
    <v>       0.04611001       0.02662163       0.00000000 </v>
    <v>      -0.00000000       0.05324325       0.00000000 </v>
    <v>       0.00000000       0.00000000       0.05000000 </v>
   </varray>
  </crystal>
  <varray name="positions" >
   <v>       0.67252735       0.95328970       0.58563743 </v>
   <v>       0.33880498       0.82877213       0.55808455 </v>
   <v>       0.17251169       0.00737142       0.50745936 </v>
   <v>       0.25002450       0.93803795       0.66282350 </v>
   <v>       0.17122787       0.51003285       0.55808455 </v>
   <v>       0.99262858       0.16514027       0.50745936 </v>
   <v>       0.06196205       0.31198656       0.66282350 </v>
   <v>       0.48996715       0.66119502       0.55808455 </v>
   <v>       0.83485973       0.82748831       0.50745936 </v>
   <v>       0.68801344       0.74997550       0.66282350 </v>
   <v>       0.96859165       0.81636592       0.48471736 </v>
   <v>       0.16201391       0.65557868       0.45506707 </v>
   <v>       0.04671030       0.71923765       0.58563743 </v>
   <v>       0.18363408       0.15222573       0.48471736 </v>
   <v>       0.34442132       0.50643523       0.45506707 </v>
   <v>       0.28076235       0.32747265       0.58563743 </v>
   <v>       0.84777427       0.03140835       0.48471736 </v>
   <v>       0.49356477       0.83798609       0.45506707 </v>
   <v>       0.73926295       0.82689737       0.50982023 </v>
   <v>       0.96765819       0.04072858       0.49264022 </v>
   <v>       0.95927142       0.92692962       0.49264022 </v>
   <v>       0.07307038       0.03234181       0.49264022 </v>
   <v>       0.37115464       0.63116476       0.50010075 </v>
   <v>       0.36883524       0.73998988       0.50010075 </v>
   <v>       0.26001012       0.62884536       0.50010075 </v>
   <v>       0.17310263       0.91236558       0.50982023 </v>
   <v>       0.08763442       0.26073705       0.50982023 </v>
   <v>       0.14970888       0.74136045       0.48043695 </v>
   <v>       0.25863955       0.40834843       0.48043695 </v>
   <v>       0.59165157       0.85029112       0.48043695 </v>
   <v>       0.70594374       0.86523634       0.50799674 </v>
   <v>       0.71000304       0.98653518       0.49699905 </v>
   <v>       0.74329421       0.93995856       0.49956362 </v>
   <v>       0.80977451       0.86026540       0.50461654 </v>
   <v>       0.81716417       0.97400173       0.49240470 </v>
   <v>       0.03886465       0.06970277       0.49279601 </v>
   <v>       0.93029723       0.96916188       0.49279601 </v>
   <v>       0.03083812       0.96113535       0.49279601 </v>
   <v>       0.29956864       0.59693382       0.50034138 </v>
   <v>       0.40306618       0.70263483       0.50034138 </v>
   <v>       0.29736517       0.70043136       0.50034138 </v>
   <v>       0.25675640       0.73827832       0.50419610 </v>
   <v>       0.17707956       0.80440761       0.51201851 </v>
   <v>       0.24419565       0.83640277       0.54400392 </v>
   <v>       0.28547124       0.80407283       0.53664655 </v>
   <v>       0.13476366       0.84070740       0.50799674 </v>
   <v>       0.06558786       0.91749828       0.49583113 </v>
   <v>       0.13973460       0.94950911       0.50461654 </v>
   <v>       0.27327415       0.90123169       0.58735816 </v>
   <v>       0.26172168       0.51847808       0.50419610 </v>
   <v>       0.19559239       0.37267195       0.51201851 </v>
   <v>       0.16359723       0.40779288       0.54400392 </v>
   <v>       0.19592717       0.48139841       0.53664655 </v>
   <v>       0.15929260       0.29405626       0.50799674 </v>
   <v>       0.08250172       0.14808958       0.49583113 </v>
   <v>       0.05049089       0.19022549       0.50461654 </v>
   <v>       0.09876831       0.37204246       0.58735816 </v>
   <v>       0.48152192       0.74324360       0.50419610 </v>
   <v>       0.62732805       0.82292044       0.51201851 </v>
   <v>       0.59220712       0.75580435       0.54400392 </v>
   <v>       0.51860159       0.71452876       0.53664655 </v>
   <v>       0.85191042       0.93441214       0.49583113 </v>
   <v>       0.62795754       0.72672585       0.58735816 </v>
   <v>       0.18720232       0.70798735       0.47869026 </v>
   <v>       0.06004144       0.80333565       0.49956362 </v>
   <v>       0.02599827       0.84316244       0.49240470 </v>
   <v>       0.01346482       0.72346787       0.49699905 </v>
   <v>       0.29201265       0.47921498       0.47869026 </v>
   <v>       0.19666435       0.25670579       0.49956362 </v>
   <v>       0.15683756       0.18283583       0.49240470 </v>
   <v>       0.27653213       0.28999696       0.49699905 </v>
   <v>       0.52078502       0.81279768       0.47869026 </v>
   <v>       0.71896750       0.02582249       0.45031875 </v>
   <v>       0.67492416       0.98805666       0.55314587 </v>
   <v>       0.33363505       0.95154088       0.58364944 </v>
   <v>       0.22629444       0.89398562       0.63658237 </v>
   <v>       0.04845912       0.38209417       0.58364944 </v>
   <v>       0.10601438       0.33230882       0.63658237 </v>
   <v>       0.61790583       0.66636495       0.58364944 </v>
   <v>       0.66769118       0.77370556       0.63658237 </v>
   <v>       0.97417751       0.69314502       0.45031875 </v>
   <v>       0.01194334       0.68686750       0.55314587 </v>
   <v>       0.30685498       0.28103250       0.45031875 </v>
   <v>       0.31313250       0.32507584       0.55314587 </v>
  </varray>
 </structure>
</modeling>
