<?xml version="1.0" encoding="ISO-8859-1"?>
<modeling>
 <generator>
  <i name="program" type="string">vasp </i>
  <i name="version" type="string">5.4.4.18Apr17-6-g9f103f2a35  </i>
  <i name="subversion" type="string">(build Jun 07 2020 16:50:00) complex            parallel </i>
  <i name="platform" type="string">LinuxIFC </i>
  <i name="date" type="string">2023 02 27 </i>
  <i name="time" type="string">19:18:26 </i>
 </generator>
 <incar>
  <i type="string" name="SYSTEM">Simulation for cell shape cell volume r</i>
  <i type="int" name="ISTART">     1</i>
  <i type="string" name="PREC">high</i>
  <i type="string" name="ALGO">48</i>
  <i type="int" name="ICHARG">    11</i>
  <i type="int" name="NELM">   200</i>
  <i type="int" name="IBRION">    -1</i>
  <i name="EDIFF">      0.00001000</i>
  <i name="EDIFFG">     -0.01000000</i>
  <i type="int" name="NSW">     0</i>
  <i type="int" name="ISIF">     2</i>
  <i name="ENCUT">    500.00000000</i>
  <i name="POTIM">      0.30000000</i>
  <i type="string" name="LREAL">A</i>
  <i type="int" name="ISMEAR">     0</i>
  <i name="SIGMA">      0.01000000</i>
  <i type="int" name="NWRITE">     0</i>
  <i type="logical" name="LWAVE"> F  </i>
  <i type="logical" name="LCHARG"> F  </i>
  <v type="int" name="KPOINT_BSE">    -1     0     0     0</v>
  <i type="int" name="NELM">   200</i>
  <i type="string" name="GGA">PE</i>
 </incar>
 <structure name="primitive_cell" >
  <crystal>
   <varray name="basis" >
    <v>      22.02416457      -0.00000008       0.00000000 </v>
    <v>     -11.01208222      19.07348605       0.00000000 </v>
    <v>       0.00000000       0.00000000      20.00000000 </v>
   </varray>
   <i name="volume">   8401.55189976 </i>
   <varray name="rec_basis" >
    <v>       0.04540467       0.02621440       0.00000000 </v>
    <v>       0.00000000       0.05242880       0.00000000 </v>
    <v>       0.00000000       0.00000000       0.05000000 </v>
   </varray>
  </crystal>
  <varray name="positions" >
   <v>       0.35762852      -0.47238560       0.42767160 </v>
   <v>       0.39530488      -0.41668493       0.43811018 </v>
   <v>       0.46057103      -0.39298414       0.44990987 </v>
   <v>       0.36391939      -0.37114016       0.43813059 </v>
   <v>       0.40007551       0.48317725      -0.48661434 </v>
   <v>       0.29345674      -0.40562568       0.43790064 </v>
   <v>       0.48607894      -0.43885189       0.45563275 </v>
   <v>       0.45039221       0.49766823       0.49028451 </v>
   <v>       0.40562568      -0.30091759       0.43790064 </v>
   <v>       0.26494045      -0.36391939       0.43813059 </v>
   <v>      -0.44601480      -0.41867909       0.42828334 </v>
   <v>       0.47821837       0.45316099       0.49705712 </v>
   <v>       0.37114016      -0.26494045       0.43813059 </v>
   <v>      -0.41016421      -0.35669227       0.39515793 </v>
   <v>       0.44884382       0.40334121      -0.47662324 </v>
   <v>       0.30091759      -0.29345674       0.43790064 </v>
   <v>       0.14644482      -0.46057103       0.44990987 </v>
   <v>       0.18801019      -0.39530488       0.43811018 </v>
   <v>      -0.41731742      -0.46436555       0.43542853 </v>
   <v>      -0.45617632       0.47025486       0.47134041 </v>
   <v>       0.41668493      -0.18801019       0.43811018 </v>
   <v>      -0.34836473      -0.34073240       0.37027865 </v>
   <v>       0.16998588      -0.35762852       0.42767160 </v>
   <v>       0.47238560      -0.16998588       0.42767160 </v>
   <v>       0.05347194       0.41016421       0.39515793 </v>
   <v>      -0.35486171      -0.44737734       0.40681898 </v>
   <v>       0.07506917      -0.48607894       0.45563275 </v>
   <v>      -0.43530390       0.42101602       0.47856380 </v>
   <v>      -0.31882400      -0.29028539       0.34461552 </v>
   <v>      -0.32109160      -0.38673356       0.37506277 </v>
   <v>       0.02733572       0.44601480       0.42828334 </v>
   <v>       0.02853861       0.31882400       0.34461552 </v>
   <v>       0.00763234       0.34836473       0.37027865 </v>
   <v>       0.39298414      -0.14644482       0.44990987 </v>
   <v>       0.08310174      -0.40007551      -0.48661434 </v>
   <v>       0.04727602      -0.45039221       0.49028451 </v>
   <v>      -0.37124360       0.43647542       0.48579876 </v>
   <v>      -0.27107738      -0.37355778       0.35163529 </v>
   <v>      -0.32675705       0.48989379       0.49154616 </v>
   <v>      -0.48317725      -0.08310174      -0.48661434 </v>
   <v>      -0.04704814       0.41731742       0.43542853 </v>
   <v>       0.43885189      -0.07506917       0.45563275 </v>
   <v>      -0.06564196       0.32109160       0.37506277 </v>
   <v>      -0.49766823      -0.04727602       0.49028451 </v>
   <v>      -0.02505738      -0.47821837       0.49705712 </v>
   <v>      -0.35251666       0.38073942       0.48654652 </v>
   <v>      -0.09251564       0.35486171       0.40681898 </v>
   <v>      -0.40370082       0.31290013       0.48670969 </v>
   <v>      -0.07356882       0.45617632       0.47134041 </v>
   <v>      -0.10248040       0.27107738       0.35163529 </v>
   <v>       0.41867909      -0.02733572       0.42828334 </v>
   <v>       0.35669227      -0.05347194       0.39515793 </v>
   <v>      -0.04550261      -0.44884382      -0.47662324 </v>
   <v>      -0.28339905       0.40370082       0.48670969 </v>
   <v>       0.37355778       0.10248040       0.35163529 </v>
   <v>      -0.45316099       0.02505738       0.49705712 </v>
   <v>      -0.48989379       0.18334916       0.49154616 </v>
   <v>      -0.38073942       0.26674392       0.48654652 </v>
   <v>      -0.40334121       0.04550261      -0.47662324 </v>
   <v>      -0.14368008       0.43530390       0.47856380 </v>
   <v>       0.46436555       0.04704814       0.43542853 </v>
   <v>      -0.43647542       0.19228097       0.48579876 </v>
   <v>       0.34073240      -0.00763234       0.37027865 </v>
   <v>      -0.18334916       0.32675705       0.49154616 </v>
   <v>       0.38673356       0.06564196       0.37506277 </v>
   <v>      -0.47025486       0.07356882       0.47134041 </v>
   <v>       0.44737734       0.09251564       0.40681898 </v>
   <v>       0.29028539      -0.02853861       0.34461552 </v>
   <v>      -0.26674392       0.35251666       0.48654652 </v>
   <v>      -0.19228097       0.37124360       0.48579876 </v>
   <v>      -0.31290013       0.28339905       0.48670969 </v>
   <v>      -0.42101602       0.14368008       0.47856380 </v>
  </varray>
 </structure>
 <varray name="primitive_index" >
  <v type="int" >        1 </v>
  <v type="int" >       24 </v>
  <v type="int" >       68 </v>
  <v type="int" >       20 </v>
  <v type="int" >       14 </v>
  <v type="int" >       56 </v>
  <v type="int" >       39 </v>
  <v type="int" >       48 </v>
  <v type="int" >       55 </v>
  <v type="int" >       21 </v>
  <v type="int" >       40 </v>
  <v type="int" >       54 </v>
  <v type="int" >       19 </v>
  <v type="int" >       67 </v>
  <v type="int" >       18 </v>
  <v type="int" >       57 </v>
  <v type="int" >       63 </v>
  <v type="int" >       22 </v>
  <v type="int" >       51 </v>
  <v type="int" >       53 </v>
  <v type="int" >       23 </v>
  <v type="int" >       41 </v>
  <v type="int" >        3 </v>
  <v type="int" >        2 </v>
  <v type="int" >       62 </v>
  <v type="int" >       71 </v>
  <v type="int" >       29 </v>
  <v type="int" >       72 </v>
  <v type="int" >        9 </v>
  <v type="int" >       52 </v>
  <v type="int" >       30 </v>
  <v type="int" >        7 </v>
  <v type="int" >       33 </v>
  <v type="int" >       66 </v>
  <v type="int" >       10 </v>
  <v type="int" >       44 </v>
  <v type="int" >       50 </v>
  <v type="int" >       17 </v>
  <v type="int" >       16 </v>
  <v type="int" >       12 </v>
  <v type="int" >       31 </v>
  <v type="int" >       34 </v>
  <v type="int" >       32 </v>
  <v type="int" >       47 </v>
  <v type="int" >       43 </v>
  <v type="int" >       49 </v>
  <v type="int" >       61 </v>
  <v type="int" >       58 </v>
  <v type="int" >       42 </v>
  <v type="int" >        6 </v>
  <v type="int" >       35 </v>
  <v type="int" >       65 </v>
  <v type="int" >       11 </v>
  <v type="int" >       59 </v>
  <v type="int" >       15 </v>
  <v type="int" >       46 </v>
  <v type="int" >        4 </v>
  <v type="int" >       25 </v>
  <v type="int" >       13 </v>
  <v type="int" >       69 </v>
  <v type="int" >       36 </v>
  <v type="int" >       28 </v>
  <v type="int" >       38 </v>
  <v type="int" >        5 </v>
  <v type="int" >       37 </v>
  <v type="int" >       45 </v>
  <v type="int" >       64 </v>
  <v type="int" >        8 </v>
  <v type="int" >       26 </v>
  <v type="int" >       27 </v>
  <v type="int" >       60 </v>
  <v type="int" >       70 </v>
 </varray>
 <kpoints>
  <generation param="listgenerated">
   <i name="divisions" type="int">      20 </i>
   <v>       0.00000000       0.00000000       0.00000000 </v>
   <v>       0.50000000       0.00000000       0.00000000 </v>
   <v>       0.33333333       0.33333333       0.00000000 </v>
   <v>       0.00000000       0.00000000       0.00000000 </v>
  </generation>
  <varray name="kpointlist" >
   <v>       0.00000000       0.00000000       0.00000000 </v>
   <v>       0.02631579       0.00000000       0.00000000 </v>
   <v>       0.05263158       0.00000000       0.00000000 </v>
   <v>       0.07894737       0.00000000       0.00000000 </v>
   <v>       0.10526316       0.00000000       0.00000000 </v>
   <v>       0.13157895       0.00000000       0.00000000 </v>
   <v>       0.15789474       0.00000000       0.00000000 </v>
   <v>       0.18421053       0.00000000       0.00000000 </v>
   <v>       0.21052632       0.00000000       0.00000000 </v>
   <v>       0.23684211       0.00000000       0.00000000 </v>
   <v>       0.26315789       0.00000000       0.00000000 </v>
   <v>       0.28947368       0.00000000       0.00000000 </v>
   <v>       0.31578947       0.00000000       0.00000000 </v>
   <v>       0.34210526       0.00000000       0.00000000 </v>
   <v>       0.36842105       0.00000000       0.00000000 </v>
   <v>       0.39473684       0.00000000       0.00000000 </v>
   <v>       0.42105263       0.00000000       0.00000000 </v>
   <v>       0.44736842       0.00000000       0.00000000 </v>
   <v>       0.47368421       0.00000000       0.00000000 </v>
   <v>       0.50000000       0.00000000       0.00000000 </v>
   <v>       0.50000000       0.00000000       0.00000000 </v>
   <v>       0.49122807       0.01754386       0.00000000 </v>
   <v>       0.48245614       0.03508772       0.00000000 </v>
   <v>       0.47368421       0.05263158       0.00000000 </v>
   <v>       0.46491228       0.07017544       0.00000000 </v>
   <v>       0.45614035       0.08771930       0.00000000 </v>
   <v>       0.44736842       0.10526316       0.00000000 </v>
   <v>       0.43859649       0.12280702       0.00000000 </v>
   <v>       0.42982456       0.14035088       0.00000000 </v>
   <v>       0.42105263       0.15789474       0.00000000 </v>
   <v>       0.41228070       0.17543860       0.00000000 </v>
   <v>       0.40350877       0.19298246       0.00000000 </v>
   <v>       0.39473684       0.21052632       0.00000000 </v>
   <v>       0.38596491       0.22807018       0.00000000 </v>
   <v>       0.37719298       0.24561404       0.00000000 </v>
   <v>       0.36842105       0.26315789       0.00000000 </v>
   <v>       0.35964912       0.28070175       0.00000000 </v>
   <v>       0.35087719       0.29824561       0.00000000 </v>
   <v>       0.34210526       0.31578947       0.00000000 </v>
   <v>       0.33333333       0.33333333       0.00000000 </v>
   <v>       0.33333333       0.33333333       0.00000000 </v>
   <v>       0.31578947       0.31578947       0.00000000 </v>
   <v>       0.29824561       0.29824561       0.00000000 </v>
   <v>       0.28070175       0.28070175       0.00000000 </v>
   <v>       0.26315789       0.26315789       0.00000000 </v>
   <v>       0.24561404       0.24561404       0.00000000 </v>
   <v>       0.22807018       0.22807018       0.00000000 </v>
   <v>       0.21052632       0.21052632       0.00000000 </v>
   <v>       0.19298246       0.19298246       0.00000000 </v>
   <v>       0.17543860       0.17543860       0.00000000 </v>
   <v>       0.15789474       0.15789474       0.00000000 </v>
   <v>       0.14035088       0.14035088       0.00000000 </v>
   <v>       0.12280702       0.12280702       0.00000000 </v>
   <v>       0.10526316       0.10526316       0.00000000 </v>
   <v>       0.08771930       0.08771930       0.00000000 </v>
   <v>       0.07017544       0.07017544       0.00000000 </v>
   <v>       0.05263158       0.05263158       0.00000000 </v>
   <v>       0.03508772       0.03508772       0.00000000 </v>
   <v>       0.01754386       0.01754386       0.00000000 </v>
   <v>       0.00000000       0.00000000       0.00000000 </v>
  </varray>
  <varray name="weights" >
   <v>       0.01666667 </v>
   <v>       0.01666667 </v>
   <v>       0.01666667 </v>
   <v>       0.01666667 </v>
   <v>       0.01666667 </v>
   <v>       0.01666667 </v>
   <v>       0.01666667 </v>
   <v>       0.01666667 </v>
   <v>       0.01666667 </v>
   <v>       0.01666667 </v>
   <v>       0.01666667 </v>
   <v>       0.01666667 </v>
   <v>       0.01666667 </v>
   <v>       0.01666667 </v>
   <v>       0.01666667 </v>
   <v>       0.01666667 </v>
   <v>       0.01666667 </v>
   <v>       0.01666667 </v>
   <v>       0.01666667 </v>
   <v>       0.01666667 </v>
   <v>       0.01666667 </v>
   <v>       0.01666667 </v>
   <v>       0.01666667 </v>
   <v>       0.01666667 </v>
   <v>       0.01666667 </v>
   <v>       0.01666667 </v>
   <v>       0.01666667 </v>
   <v>       0.01666667 </v>
   <v>       0.01666667 </v>
   <v>       0.01666667 </v>
   <v>       0.01666667 </v>
   <v>       0.01666667 </v>
   <v>       0.01666667 </v>
   <v>       0.01666667 </v>
   <v>       0.01666667 </v>
   <v>       0.01666667 </v>
   <v>       0.01666667 </v>
   <v>       0.01666667 </v>
   <v>       0.01666667 </v>
   <v>       0.01666667 </v>
   <v>       0.01666667 </v>
   <v>       0.01666667 </v>
   <v>       0.01666667 </v>
   <v>       0.01666667 </v>
   <v>       0.01666667 </v>
   <v>       0.01666667 </v>
   <v>       0.01666667 </v>
   <v>       0.01666667 </v>
   <v>       0.01666667 </v>
   <v>       0.01666667 </v>
   <v>       0.01666667 </v>
   <v>       0.01666667 </v>
   <v>       0.01666667 </v>
   <v>       0.01666667 </v>
   <v>       0.01666667 </v>
   <v>       0.01666667 </v>
   <v>       0.01666667 </v>
   <v>       0.01666667 </v>
   <v>       0.01666667 </v>
   <v>       0.01666667 </v>
  </varray>
 </kpoints>
 <parameters>
  <separator name="general" >
   <i type="string" name="SYSTEM">Simulation for cell shape cell volume r</i>
   <i type="logical" name="LCOMPAT"> F  </i>
  </separator>
  <separator name="electronic" >
   <i type="string" name="PREC">high</i>
   <i name="ENMAX">    500.00000000</i>
   <i name="ENAUG">    644.87300000</i>
   <i name="EDIFF">      0.00001000</i>
   <i type="int" name="IALGO">    38</i>
   <i type="int" name="IWAVPR">    10</i>
   <i type="int" name="NBANDS">   176</i>
   <i name="NELECT">    252.00000000</i>
   <i type="int" name="TURBO">     0</i>
   <i type="int" name="IRESTART">     0</i>
   <i type="int" name="NREBOOT">     0</i>
   <i type="int" name="NMIN">     0</i>
   <i name="EREF">      0.00000000</i>
   <separator name="electronic smearing" >
    <i type="int" name="ISMEAR">     0</i>
    <i name="SIGMA">      0.01000000</i>
    <i name="KSPACING">      0.50000000</i>
    <i type="logical" name="KGAMMA"> T  </i>
   </separator>
   <separator name="electronic projectors" >
    <i type="logical" name="LREAL"> T  </i>
    <v name="ROPT">     -0.00040000     -0.00040000     -0.00040000</v>
    <i type="int" name="LMAXPAW">  -100</i>
    <i type="int" name="LMAXMIX">     2</i>
    <i type="logical" name="NLSPLINE"> F  </i>
   </separator>
   <separator name="electronic startup" >
    <i type="int" name="ISTART">     1</i>
    <i type="int" name="ICHARG">    11</i>
    <i type="int" name="INIWAV">     1</i>
   </separator>
   <separator name="electronic spin" >
    <i type="int" name="ISPIN">     1</i>
    <i type="logical" name="LNONCOLLINEAR"> F  </i>
    <v name="MAGMOM">      1.00000000      1.00000000      1.00000000      1.00000000      1.00000000      1.00000000      1.00000000      1.00000000      1.00000000      1.00000000      1.00000000      1.00000000      1.00000000      1.00000000      1.00000000      1.00000000      1.00000000      1.00000000      1.00000000      1.00000000
      1.00000000      1.00000000      1.00000000      1.00000000      1.00000000      1.00000000      1.00000000      1.00000000      1.00000000      1.00000000      1.00000000      1.00000000      1.00000000      1.00000000      1.00000000      1.00000000      1.00000000      1.00000000      1.00000000      1.00000000
      1.00000000      1.00000000      1.00000000      1.00000000      1.00000000      1.00000000      1.00000000      1.00000000      1.00000000      1.00000000      1.00000000      1.00000000      1.00000000      1.00000000      1.00000000      1.00000000      1.00000000      1.00000000      1.00000000      1.00000000
      1.00000000      1.00000000      1.00000000      1.00000000      1.00000000      1.00000000      1.00000000      1.00000000      1.00000000      1.00000000      1.00000000      1.00000000</v>
    <i name="NUPDOWN">     -1.00000000</i>
    <i type="logical" name="LSORBIT"> F  </i>
    <v name="SAXIS">      0.00000000      0.00000000      1.00000000</v>
    <i type="logical" name="LSPIRAL"> F  </i>
    <v name="QSPIRAL">      0.00000000      0.00000000      0.00000000</v>
    <i type="logical" name="LZEROZ"> F  </i>
   </separator>
   <separator name="electronic exchange-correlation" >
    <i type="logical" name="LASPH"> F  </i>
    <i type="logical" name="LMETAGGA"> F  </i>
   </separator>
   <separator name="electronic convergence" >
    <i type="int" name="NELM">   200</i>
    <i type="int" name="NELMDL">     0</i>
    <i type="int" name="NELMIN">     2</i>
    <i name="ENINI">    500.00000000</i>
    <separator name="electronic convergence detail" >
     <i type="logical" name="LDIAG"> T  </i>
     <i type="logical" name="LSUBROT"> F  </i>
     <i name="WEIMIN">      0.00000000</i>
     <i name="EBREAK">      0.00000001</i>
     <i name="DEPER">      0.30000000</i>
     <i type="int" name="NRMM">     4</i>
     <i name="TIME">      0.40000000</i>
    </separator>
   </separator>
   <separator name="electronic mixer" >
    <i name="AMIX">      0.40000000</i>
    <i name="BMIX">      1.00000000</i>
    <i name="AMIN">      0.10000000</i>
    <i name="AMIX_MAG">      1.60000000</i>
    <i name="BMIX_MAG">      1.00000000</i>
    <separator name="electronic mixer details" >
     <i type="int" name="IMIX">     4</i>
     <i type="logical" name="MIXFIRST"> F  </i>
     <i type="int" name="MAXMIX">   -45</i>
     <i name="WC">    100.00000000</i>
     <i type="int" name="INIMIX">     1</i>
     <i type="int" name="MIXPRE">     1</i>
     <i type="int" name="MREMOVE">     5</i>
    </separator>
   </separator>
   <separator name="electronic dipolcorrection" >
    <i type="logical" name="LDIPOL"> F  </i>
    <i type="logical" name="LMONO"> F  </i>
    <i type="int" name="IDIPOL">     0</i>
    <i name="EPSILON">      1.00000000</i>
    <v name="DIPOL">   -100.00000000   -100.00000000   -100.00000000</v>
    <i name="EFIELD">      0.00000000</i>
   </separator>
  </separator>
  <separator name="grids" >
   <i type="int" name="NGX">   162</i>
   <i type="int" name="NGY">   162</i>
   <i type="int" name="NGZ">   150</i>
   <i type="int" name="NGXF">   250</i>
   <i type="int" name="NGYF">   250</i>
   <i type="int" name="NGZF">   224</i>
   <i type="logical" name="ADDGRID"> F  </i>
  </separator>
  <separator name="ionic" >
   <i type="int" name="NSW">     0</i>
   <i type="int" name="IBRION">    -1</i>
   <i type="int" name="MDALGO">     0</i>
   <i type="int" name="ISIF">     2</i>
   <i name="PSTRESS">      0.00000000</i>
   <i name="EDIFFG">     -0.01000000</i>
   <i type="int" name="NFREE">     0</i>
   <i name="POTIM">      0.30000000</i>
   <i name="SMASS">     -3.00000000</i>
   <i name="SCALEE">      1.00000000</i>
  </separator>
  <separator name="ionic md" >
   <i name="TEBEG">      0.00010000</i>
   <i name="TEEND">      0.00010000</i>
   <i type="int" name="NBLOCK">     1</i>
   <i type="int" name="KBLOCK">     1</i>
   <i type="int" name="NPACO">   256</i>
   <i name="APACO">     16.00000000</i>
  </separator>
  <separator name="symmetry" >
   <i type="int" name="ISYM">     2</i>
   <i name="SYMPREC">      0.00001000</i>
  </separator>
  <separator name="dos" >
   <i type="int" name="LORBIT">     0</i>
   <v name="RWIGS">     -1.00000000     -1.00000000     -1.00000000</v>
   <i type="int" name="NEDOS">   301</i>
   <i name="EMIN">     10.00000000</i>
   <i name="EMAX">    -10.00000000</i>
   <i name="EFERMI">      0.00000000</i>
  </separator>
  <separator name="writing" >
   <i type="int" name="NWRITE">     0</i>
   <i type="logical" name="LWAVE"> F  </i>
   <i type="logical" name="LDOWNSAMPLE"> F  </i>
   <i type="logical" name="LCHARG"> F  </i>
   <i type="logical" name="LPARD"> F  </i>
   <i type="logical" name="LVTOT"> F  </i>
   <i type="logical" name="LVHAR"> F  </i>
   <i type="logical" name="LELF"> F  </i>
   <i type="logical" name="LOPTICS"> F  </i>
   <v name="STM">      0.00000000      0.00000000      0.00000000      0.00000000      0.00000000      0.00000000      0.00000000</v>
  </separator>
  <separator name="performance" >
   <i type="int" name="NPAR">    16</i>
   <i type="int" name="NSIM">     4</i>
   <i type="int" name="NBLK">    -1</i>
   <i type="logical" name="LPLANE"> T  </i>
   <i type="logical" name="LSCALAPACK"> T  </i>
   <i type="logical" name="LSCAAWARE"> F  </i>
   <i type="logical" name="LSCALU"> F  </i>
   <i type="logical" name="LASYNC"> F  </i>
   <i type="logical" name="LORBITALREAL"> F  </i>
  </separator>
  <separator name="miscellaneous" >
   <i type="int" name="IDIOT">     3</i>
   <i type="int" name="ISPECIAL">     0</i>
   <i type="logical" name="LMUSIC"> F  </i>
   <v name="POMASS">      1.00000000     12.01100000     14.00100000</v>
   <v name="DARWINR">      0.00000000      0.00000000      0.00000000</v>
   <v name="DARWINV">      1.00000000      1.00000000      1.00000000</v>
   <i type="logical" name="LCORR"> T  </i>
  </separator>
  <i type="logical" name="GGA_COMPAT"> T  </i>
  <i type="logical" name="LBERRY"> F  </i>
  <i type="int" name="ICORELEVEL">     0</i>
  <i type="logical" name="LDAU"> F  </i>
  <i type="int" name="I_CONSTRAINED_M">     0</i>
  <separator name="electronic exchange-correlation" >
   <i type="string" name="GGA">PE</i>
   <i type="int" name="VOSKOWN">     0</i>
   <i type="logical" name="LHFCALC"> F  </i>
   <i type="string" name="PRECFOCK"></i>
   <i type="logical" name="LSYMGRAD"> F  </i>
   <i type="logical" name="LHFONE"> F  </i>
   <i type="logical" name="LRHFCALC"> F  </i>
   <i type="logical" name="LTHOMAS"> F  </i>
   <i type="logical" name="LMODELHF"> F  </i>
   <i name="ENCUT4O">     -1.00000000</i>
   <i type="int" name="EXXOEP">     0</i>
   <i type="int" name="FOURORBIT">     0</i>
   <i name="AEXX">      0.00000000</i>
   <i name="HFALPHA">      0.00000000</i>
   <i name="MCALPHA">      0.00000000</i>
   <i name="ALDAX">      1.00000000</i>
   <i name="AGGAX">      1.00000000</i>
   <i name="ALDAC">      1.00000000</i>
   <i name="AGGAC">      1.00000000</i>
   <i type="int" name="NKREDX">     1</i>
   <i type="int" name="NKREDY">     1</i>
   <i type="int" name="NKREDZ">     1</i>
   <i type="logical" name="SHIFTRED"> F  </i>
   <i type="logical" name="ODDONLY"> F  </i>
   <i type="logical" name="EVENONLY"> F  </i>
   <i type="int" name="LMAXFOCK">     0</i>
   <i type="int" name="NMAXFOCKAE">     0</i>
   <i type="logical" name="LFOCKAEDFT"> F  </i>
   <i name="HFSCREEN">      0.00000000</i>
   <i name="HFSCREENC">      0.00000000</i>
   <i type="int" name="NBANDSGWLOW">     0</i>
  </separator>
  <separator name="vdW DFT" >
   <i type="logical" name="LUSE_VDW"> F  </i>
   <i name="Zab_VDW">     -0.84910000</i>
   <i name="PARAM1">      0.12340000</i>
   <i name="PARAM2">      1.00000000</i>
   <i name="PARAM3">      0.00000000</i>
  </separator>
  <separator name="model GW" >
   <i type="int" name="MODEL_GW">     0</i>
   <i name="MODEL_EPS0">     70.01293250</i>
   <i name="MODEL_ALPHA">      1.00000000</i>
  </separator>
  <separator name="linear response parameters" >
   <i type="logical" name="LEPSILON"> F  </i>
   <i type="logical" name="LRPA"> F  </i>
   <i type="logical" name="LNABLA"> F  </i>
   <i type="logical" name="LVEL"> F  </i>
   <i type="int" name="KINTER">     0</i>
   <i name="CSHIFT">      0.10000000</i>
   <i name="OMEGAMAX">     -1.00000000</i>
   <i name="DEG_THRESHOLD">      0.00200000</i>
   <i name="RTIME">     -0.10000000</i>
   <i name="WPLASMAI">      0.00000000</i>
   <v name="DFIELD">      0.00000000      0.00000000      0.00000000</v>
   <v name="WPLASMA">      0.00000000      0.00000000      0.00000000      0.00000000      0.00000000      0.00000000      0.00000000      0.00000000      0.00000000</v>
  </separator>
  <separator name="orbital magnetization" >
   <i type="logical" name="NUCIND"> F  </i>
   <v name="MAGPOS">      0.00000000      0.00000000      0.00000000</v>
   <i type="logical" name="LNICSALL"> T  </i>
   <i type="logical" name="ORBITALMAG"> F  </i>
   <i type="logical" name="LMAGBLOCH"> F  </i>
   <i type="logical" name="LCHIMAG"> F  </i>
   <i type="logical" name="LGAUGE"> T  </i>
   <i type="int" name="MAGATOM">     0</i>
   <v name="MAGDIPOL">      0.00000000      0.00000000      0.00000000</v>
   <v name="AVECCONST">      0.00000000      0.00000000      0.00000000</v>
  </separator>
  <separator name="response functions" >
   <i type="logical" name="LADDER"> F  </i>
   <i type="logical" name="LRPAFORCE"> F  </i>
   <i type="logical" name="LFXC"> F  </i>
   <i type="logical" name="LHARTREE"> T  </i>
   <i type="int" name="IBSE">     0</i>
   <v type="int" name="KPOINT">    -1     0     0     0</v>
   <i type="logical" name="LTCTE"> F  </i>
   <i type="logical" name="LTETE"> F  </i>
   <i type="logical" name="LTRIPLET"> F  </i>
   <i type="logical" name="LFXCEPS"> F  </i>
   <i type="logical" name="LFXHEG"> F  </i>
   <i type="int" name="NATURALO">     2</i>
   <i type="logical" name="L2ORDER"> F  </i>
   <i type="logical" name="LMP2LT"> F  </i>
   <i type="logical" name="LUSEW"> F  </i>
   <i name="ENCUTGW">     -2.00000000</i>
   <i name="ENCUTGWSOFT">     -2.00000000</i>
   <i name="ENCUTLF">     -1.00000000</i>
   <i type="int" name="LMAXMP2">    -1</i>
   <i name="SCISSOR">      0.00000000</i>
   <i type="int" name="NOMEGA">     0</i>
   <i type="int" name="NOMEGAR">     0</i>
   <i type="int" name="NBANDSGW">    -1</i>
   <i type="int" name="NBANDSO">    -1</i>
   <i type="int" name="NBANDSV">    -1</i>
   <i type="int" name="NELM">   200</i>
   <i type="int" name="NELMHF">     1</i>
   <i type="int" name="DIM">     3</i>
   <i type="int" name="ANTIRES">     0</i>
   <i name="OMEGAMAX">    -30.00000000</i>
   <i name="OMEGAMIN">    -30.00000000</i>
   <i name="OMEGATL">   -200.00000000</i>
   <i type="int" name="OMEGAGRID">   140</i>
   <i name="CSHIFT">     -0.10000000</i>
   <i type="logical" name="SELFENERGY"> F  </i>
   <i type="logical" name="LSPECTRAL"> F  </i>
   <i type="logical" name="LSPECTRALGW"> F  </i>
   <i type="logical" name="LSINGLES"> F  </i>
   <i type="logical" name="LFERMIGW"> F  </i>
   <i type="logical" name="ODDONLYGW"> F  </i>
   <i type="logical" name="EVENONLYGW"> F  </i>
   <i type="int" name="NKREDLFX">     1</i>
   <i type="int" name="NKREDLFY">     1</i>
   <i type="int" name="NKREDLFZ">     1</i>
   <i type="int" name="MAXMEM">  2800</i>
   <i type="int" name="TELESCOPE">     0</i>
   <i type="int" name="TAUPAR">     1</i>
   <i type="int" name="OMEGAPAR">    -1</i>
   <i name="LAMBDA">      1.00000000</i>
  </separator>
  <separator name="External order field" >
   <i name="OFIELD_KAPPA">      0.00000000</i>
   <v name="OFIELD_K">      0.00000000      0.00000000      0.00000000</v>
   <i name="OFIELD_Q6_NEAR">      0.00000000</i>
   <i name="OFIELD_Q6_FAR">      0.00000000</i>
   <i name="OFIELD_A">      0.00000000</i>
  </separator>
  <separator name="solvation model" >
   <i type="logical" name="LSOL"> F  </i>
  </separator>
 </parameters>
 <atominfo>
  <atoms>      72 </atoms>
  <types>       3 </types>
  <array name="atoms" >
   <dimension dim="1">ion</dimension>
   <field type="string">element</field>
   <field type="int">atomtype</field>
   <set>
    <rc><c>H </c><c>   1</c></rc>
    <rc><c>H </c><c>   1</c></rc>
    <rc><c>H </c><c>   1</c></rc>
    <rc><c>H </c><c>   1</c></rc>
    <rc><c>H </c><c>   1</c></rc>
    <rc><c>H </c><c>   1</c></rc>
    <rc><c>H </c><c>   1</c></rc>
    <rc><c>H </c><c>   1</c></rc>
    <rc><c>H </c><c>   1</c></rc>
    <rc><c>H </c><c>   1</c></rc>
    <rc><c>H </c><c>   1</c></rc>
    <rc><c>H </c><c>   1</c></rc>
    <rc><c>H </c><c>   1</c></rc>
    <rc><c>H </c><c>   1</c></rc>
    <rc><c>H </c><c>   1</c></rc>
    <rc><c>H </c><c>   1</c></rc>
    <rc><c>H </c><c>   1</c></rc>
    <rc><c>H </c><c>   1</c></rc>
    <rc><c>C </c><c>   2</c></rc>
    <rc><c>C </c><c>   2</c></rc>
    <rc><c>C </c><c>   2</c></rc>
    <rc><c>C </c><c>   2</c></rc>
    <rc><c>C </c><c>   2</c></rc>
    <rc><c>C </c><c>   2</c></rc>
    <rc><c>C </c><c>   2</c></rc>
    <rc><c>C </c><c>   2</c></rc>
    <rc><c>C </c><c>   2</c></rc>
    <rc><c>C </c><c>   2</c></rc>
    <rc><c>C </c><c>   2</c></rc>
    <rc><c>C </c><c>   2</c></rc>
    <rc><c>C </c><c>   2</c></rc>
    <rc><c>C </c><c>   2</c></rc>
    <rc><c>C </c><c>   2</c></rc>
    <rc><c>C </c><c>   2</c></rc>
    <rc><c>C </c><c>   2</c></rc>
    <rc><c>C </c><c>   2</c></rc>
    <rc><c>C </c><c>   2</c></rc>
    <rc><c>C </c><c>   2</c></rc>
    <rc><c>C </c><c>   2</c></rc>
    <rc><c>C </c><c>   2</c></rc>
    <rc><c>C </c><c>   2</c></rc>
    <rc><c>C </c><c>   2</c></rc>
    <rc><c>C </c><c>   2</c></rc>
    <rc><c>C </c><c>   2</c></rc>
    <rc><c>C </c><c>   2</c></rc>
    <rc><c>C </c><c>   2</c></rc>
    <rc><c>C </c><c>   2</c></rc>
    <rc><c>C </c><c>   2</c></rc>
    <rc><c>C </c><c>   2</c></rc>
    <rc><c>C </c><c>   2</c></rc>
    <rc><c>C </c><c>   2</c></rc>
    <rc><c>C </c><c>   2</c></rc>
    <rc><c>C </c><c>   2</c></rc>
    <rc><c>C </c><c>   2</c></rc>
    <rc><c>N </c><c>   3</c></rc>
    <rc><c>N </c><c>   3</c></rc>
    <rc><c>N </c><c>   3</c></rc>
    <rc><c>N </c><c>   3</c></rc>
    <rc><c>N </c><c>   3</c></rc>
    <rc><c>N </c><c>   3</c></rc>
    <rc><c>N </c><c>   3</c></rc>
    <rc><c>N </c><c>   3</c></rc>
    <rc><c>N </c><c>   3</c></rc>
    <rc><c>N </c><c>   3</c></rc>
    <rc><c>N </c><c>   3</c></rc>
    <rc><c>N </c><c>   3</c></rc>
    <rc><c>N </c><c>   3</c></rc>
    <rc><c>N </c><c>   3</c></rc>
    <rc><c>N </c><c>   3</c></rc>
    <rc><c>N </c><c>   3</c></rc>
    <rc><c>N </c><c>   3</c></rc>
    <rc><c>N </c><c>   3</c></rc>
   </set>
  </array>
  <array name="atomtypes" >
   <dimension dim="1">type</dimension>
   <field type="int">atomspertype</field>
   <field type="string">element</field>
   <field>mass</field>
   <field>valence</field>
   <field type="string">pseudopotential</field>
   <set>
    <rc><c>  18</c><c>H </c><c>      1.00000000</c><c>      1.00000000</c><c>  PAW_PBE H 15Jun2001                   </c></rc>
    <rc><c>  36</c><c>C </c><c>     12.01100000</c><c>      4.00000000</c><c>  PAW_PBE C 08Apr2002                   </c></rc>
    <rc><c>  18</c><c>N </c><c>     14.00100000</c><c>      5.00000000</c><c>  PAW_PBE N 08Apr2002                   </c></rc>
   </set>
  </array>
 </atominfo>
 <structure name="initialpos" >
  <crystal>
   <varray name="basis" >
    <v>      22.02416457      -0.00000008       0.00000000 </v>
    <v>     -11.01208222      19.07348605       0.00000000 </v>
    <v>       0.00000000       0.00000000      20.00000000 </v>
   </varray>
   <i name="volume">   8401.55189976 </i>
   <varray name="rec_basis" >
    <v>       0.04540467       0.02621440       0.00000000 </v>
    <v>       0.00000000       0.05242880       0.00000000 </v>
    <v>       0.00000000       0.00000000       0.05000000 </v>
   </varray>
  </crystal>
  <varray name="positions" >
   <v>       0.35762852       0.52761440       0.42767160 </v>
   <v>       0.47238560       0.83001412       0.42767160 </v>
   <v>       0.16998588       0.64237148       0.42767160 </v>
   <v>       0.51010621       0.18334916       0.49154616 </v>
   <v>       0.81665084       0.32675705       0.49154616 </v>
   <v>       0.89751960       0.27107738       0.35163529 </v>
   <v>       0.02853861       0.31882400       0.34461552 </v>
   <v>       0.29028539       0.97146139       0.34461552 </v>
   <v>       0.68117600       0.70971461       0.34461552 </v>
   <v>       0.08310174       0.59992449       0.51338566 </v>
   <v>       0.95449739       0.55115618       0.52337676 </v>
   <v>       0.51682275       0.91689826       0.51338566 </v>
   <v>       0.59665879       0.04550261       0.52337676 </v>
   <v>       0.40007551       0.48317725       0.51338566 </v>
   <v>       0.37355778       0.10248040       0.35163529 </v>
   <v>       0.67324295       0.48989379       0.49154616 </v>
   <v>       0.72892262       0.62644222       0.35163529 </v>
   <v>       0.44884382       0.40334121       0.52337676 </v>
   <v>       0.37114016       0.73505955       0.43813059 </v>
   <v>       0.36391939       0.62885984       0.43813059 </v>
   <v>       0.26494045       0.63608061       0.43813059 </v>
   <v>       0.18801019       0.60469512       0.43811018 </v>
   <v>       0.41668493       0.81198981       0.43811018 </v>
   <v>       0.39530488       0.58331507       0.43811018 </v>
   <v>       0.61926058       0.26674392       0.48654652 </v>
   <v>       0.73325608       0.35251666       0.48654652 </v>
   <v>       0.80771903       0.37124360       0.48579876 </v>
   <v>       0.56352458       0.19228097       0.48579876 </v>
   <v>       0.07506917       0.51392106       0.45563275 </v>
   <v>       0.02733572       0.44601480       0.42828334 </v>
   <v>       0.95295186       0.41731742       0.43542853 </v>
   <v>       0.93435804       0.32109160       0.37506277 </v>
   <v>       0.00763234       0.34836473       0.37027865 </v>
   <v>       0.43885189       0.92493083       0.45563275 </v>
   <v>       0.41867909       0.97266428       0.42828334 </v>
   <v>       0.46436555       0.04704814       0.43542853 </v>
   <v>       0.38673356       0.06564196       0.37506277 </v>
   <v>       0.34073240       0.99236766       0.37027865 </v>
   <v>       0.48607894       0.56114811       0.45563275 </v>
   <v>       0.55398520       0.58132091       0.42828334 </v>
   <v>       0.65163527       0.65926760       0.37027865 </v>
   <v>       0.92643118       0.45617632       0.47134041 </v>
   <v>       0.97494262       0.52178163       0.49705712 </v>
   <v>       0.04727602       0.54960779       0.49028451 </v>
   <v>       0.52974514       0.07356882       0.47134041 </v>
   <v>       0.54683901       0.02505738       0.49705712 </v>
   <v>       0.50233177       0.95272398       0.49028451 </v>
   <v>       0.45039221       0.49766823       0.49028451 </v>
   <v>       0.64748334       0.38073942       0.48654652 </v>
   <v>       0.62875640       0.43647542       0.48579876 </v>
   <v>       0.58268258       0.53563445       0.43542853 </v>
   <v>       0.67890840       0.61326644       0.37506277 </v>
   <v>       0.54382368       0.47025486       0.47134041 </v>
   <v>       0.47821837       0.45316099       0.49705712 </v>
   <v>       0.40562568       0.69908241       0.43790064 </v>
   <v>       0.29345674       0.59437432       0.43790064 </v>
   <v>       0.30091759       0.70654326       0.43790064 </v>
   <v>       0.59629918       0.31290013       0.48670969 </v>
   <v>       0.71660095       0.40370082       0.48670969 </v>
   <v>       0.68709987       0.28339905       0.48670969 </v>
   <v>       0.90748436       0.35486171       0.40681898 </v>
   <v>       0.05347194       0.41016421       0.39515793 </v>
   <v>       0.14644482       0.53942897       0.44990987 </v>
   <v>       0.44737734       0.09251564       0.40681898 </v>
   <v>       0.35669227       0.94652806       0.39515793 </v>
   <v>       0.39298414       0.85355518       0.44990987 </v>
   <v>       0.58983579       0.64330773       0.39515793 </v>
   <v>       0.46057103       0.60701586       0.44990987 </v>
   <v>       0.85631992       0.43530390       0.47856380 </v>
   <v>       0.57898398       0.14368008       0.47856380 </v>
   <v>       0.64513829       0.55262266       0.40681898 </v>
   <v>       0.56469610       0.42101602       0.47856380 </v>
  </varray>
 </structure>
 <calculation>
  <scstep>
   <time name="dav">  112.85  113.78</time>
   <time name="total">  113.01  113.95</time>
   <energy>
    <i name="alphaZ">     35.12522023 </i>
    <i name="ewald">  26811.58918314 </i>
    <i name="hartreedc"> -35255.54403204 </i>
    <i name="XCdc">    907.12110293 </i>
    <i name="pawpsdc">  24399.76690300 </i>
    <i name="pawaedc"> -24449.71540532 </i>
    <i name="eentropy">     -0.00000000 </i>
    <i name="bandstr">  -3263.21510738 </i>
    <i name="atom">  10283.72620831 </i>
    <i name="e_fr_energy">   -531.14592712 </i>
    <i name="e_wo_entrp">   -531.14592712 </i>
    <i name="e_0_energy">   -531.14592712 </i>
   </energy>
  </scstep>
  <scstep>
   <time name="dav">  125.52  126.57</time>
   <time name="total">  125.52  126.58</time>
   <energy>
    <i name="e_fr_energy">   -531.78677752 </i>
    <i name="e_wo_entrp">   -531.78677752 </i>
    <i name="e_0_energy">   -531.78677752 </i>
   </energy>
  </scstep>
  <scstep>
   <time name="dav">  139.59  140.77</time>
   <time name="total">  139.60  140.77</time>
   <energy>
    <i name="e_fr_energy">   -531.80889360 </i>
    <i name="e_wo_entrp">   -531.80889360 </i>
    <i name="e_0_energy">   -531.80889360 </i>
   </energy>
  </scstep>
  <scstep>
   <time name="dav">  123.59  124.64</time>
   <time name="total">  123.59  124.64</time>
   <energy>
    <i name="e_fr_energy">   -531.80925773 </i>
    <i name="e_wo_entrp">   -531.80925773 </i>
    <i name="e_0_energy">   -531.80925773 </i>
   </energy>
  </scstep>
  <scstep>
   <time name="dav">  130.19  131.29</time>
   <time name="total">  130.20  131.30</time>
   <energy>
    <i name="e_fr_energy">   -531.80927642 </i>
    <i name="e_wo_entrp">   -531.80927642 </i>
    <i name="e_0_energy">   -531.80927642 </i>
   </energy>
  </scstep>
  <scstep>
   <time name="dav">   99.26  100.10</time>
   <time name="total">   99.27  100.10</time>
   <energy>
    <i name="alphaZ">     35.12522023 </i>
    <i name="ewald">  26811.58918314 </i>
    <i name="hartreedc"> -35255.54403204 </i>
    <i name="XCdc">    907.12110293 </i>
    <i name="pawpsdc">  24399.76690300 </i>
    <i name="pawaedc"> -24449.71540532 </i>
    <i name="eentropy">     -0.00000000 </i>
    <i name="bandstr">  -3263.87845734 </i>
    <i name="atom">  10283.72620831 </i>
    <i name="e_fr_energy">   -531.80927708 </i>
    <i name="e_wo_entrp">   -531.80927708 </i>
    <i name="e_0_energy">   -531.80927708 </i>
   </energy>
  </scstep>
  <structure>
   <crystal>
    <varray name="basis" >
     <v>      22.02416457      -0.00000008       0.00000000 </v>
     <v>     -11.01208222      19.07348605       0.00000000 </v>
     <v>       0.00000000       0.00000000      20.00000000 </v>
    </varray>
    <i name="volume">   8401.55189976 </i>
    <varray name="rec_basis" >
     <v>       0.04540467       0.02621440       0.00000000 </v>
     <v>       0.00000000       0.05242880       0.00000000 </v>
     <v>       0.00000000       0.00000000       0.05000000 </v>
    </varray>
   </crystal>
   <varray name="positions" >
    <v>       0.35762852       0.52761440       0.42767160 </v>
    <v>       0.47238560       0.83001412       0.42767160 </v>
    <v>       0.16998588       0.64237148       0.42767160 </v>
    <v>       0.51010621       0.18334916       0.49154616 </v>
    <v>       0.81665084       0.32675705       0.49154616 </v>
    <v>       0.89751960       0.27107738       0.35163529 </v>
    <v>       0.02853861       0.31882400       0.34461552 </v>
    <v>       0.29028539       0.97146139       0.34461552 </v>
    <v>       0.68117600       0.70971461       0.34461552 </v>
    <v>       0.08310174       0.59992449       0.51338566 </v>
    <v>       0.95449739       0.55115618       0.52337676 </v>
    <v>       0.51682275       0.91689826       0.51338566 </v>
    <v>       0.59665879       0.04550261       0.52337676 </v>
    <v>       0.40007551       0.48317725       0.51338566 </v>
    <v>       0.37355778       0.10248040       0.35163529 </v>
    <v>       0.67324295       0.48989379       0.49154616 </v>
    <v>       0.72892262       0.62644222       0.35163529 </v>
    <v>       0.44884382       0.40334121       0.52337676 </v>
    <v>       0.37114016       0.73505955       0.43813059 </v>
    <v>       0.36391939       0.62885984       0.43813059 </v>
    <v>       0.26494045       0.63608061       0.43813059 </v>
    <v>       0.18801019       0.60469512       0.43811018 </v>
    <v>       0.41668493       0.81198981       0.43811018 </v>
    <v>       0.39530488       0.58331507       0.43811018 </v>
    <v>       0.61926058       0.26674392       0.48654652 </v>
    <v>       0.73325608       0.35251666       0.48654652 </v>
    <v>       0.80771903       0.37124360       0.48579876 </v>
    <v>       0.56352458       0.19228097       0.48579876 </v>
    <v>       0.07506917       0.51392106       0.45563275 </v>
    <v>       0.02733572       0.44601480       0.42828334 </v>
    <v>       0.95295186       0.41731742       0.43542853 </v>
    <v>       0.93435804       0.32109160       0.37506277 </v>
    <v>       0.00763234       0.34836473       0.37027865 </v>
    <v>       0.43885189       0.92493083       0.45563275 </v>
    <v>       0.41867909       0.97266428       0.42828334 </v>
    <v>       0.46436555       0.04704814       0.43542853 </v>
    <v>       0.38673356       0.06564196       0.37506277 </v>
    <v>       0.34073240       0.99236766       0.37027865 </v>
    <v>       0.48607894       0.56114811       0.45563275 </v>
    <v>       0.55398520       0.58132091       0.42828334 </v>
    <v>       0.65163527       0.65926760       0.37027865 </v>
    <v>       0.92643118       0.45617632       0.47134041 </v>
    <v>       0.97494262       0.52178163       0.49705712 </v>
    <v>       0.04727602       0.54960779       0.49028451 </v>
    <v>       0.52974514       0.07356882       0.47134041 </v>
    <v>       0.54683901       0.02505738       0.49705712 </v>
    <v>       0.50233177       0.95272398       0.49028451 </v>
    <v>       0.45039221       0.49766823       0.49028451 </v>
    <v>       0.64748334       0.38073942       0.48654652 </v>
    <v>       0.62875640       0.43647542       0.48579876 </v>
    <v>       0.58268258       0.53563445       0.43542853 </v>
    <v>       0.67890840       0.61326644       0.37506277 </v>
    <v>       0.54382368       0.47025486       0.47134041 </v>
    <v>       0.47821837       0.45316099       0.49705712 </v>
    <v>       0.40562568       0.69908241       0.43790064 </v>
    <v>       0.29345674       0.59437432       0.43790064 </v>
    <v>       0.30091759       0.70654326       0.43790064 </v>
    <v>       0.59629918       0.31290013       0.48670969 </v>
    <v>       0.71660095       0.40370082       0.48670969 </v>
    <v>       0.68709987       0.28339905       0.48670969 </v>
    <v>       0.90748436       0.35486171       0.40681898 </v>
    <v>       0.05347194       0.41016421       0.39515793 </v>
    <v>       0.14644482       0.53942897       0.44990987 </v>
    <v>       0.44737734       0.09251564       0.40681898 </v>
    <v>       0.35669227       0.94652806       0.39515793 </v>
    <v>       0.39298414       0.85355518       0.44990987 </v>
    <v>       0.58983579       0.64330773       0.39515793 </v>
    <v>       0.46057103       0.60701586       0.44990987 </v>
    <v>       0.85631992       0.43530390       0.47856380 </v>
    <v>       0.57898398       0.14368008       0.47856380 </v>
    <v>       0.64513829       0.55262266       0.40681898 </v>
    <v>       0.56469610       0.42101602       0.47856380 </v>
   </varray>
  </structure>
  <varray name="forces" >
   <v>      -0.00165803      -0.00016471      -0.00014394 </v>
   <v>       0.00097166      -0.00135354      -0.00014394 </v>
   <v>       0.00068637       0.00151825      -0.00014394 </v>
   <v>      -0.00393423       0.00008650       0.00076784 </v>
   <v>       0.00189220      -0.00345039       0.00076784 </v>
   <v>       0.00007243      -0.00227711      -0.00033510 </v>
   <v>      -0.00263857       0.00112571      -0.00268127 </v>
   <v>       0.00229418       0.00172221      -0.00268127 </v>
   <v>       0.00034439      -0.00284792      -0.00268127 </v>
   <v>       0.00248929       0.00269347       0.00376788 </v>
   <v>       0.00214423      -0.00054368       0.00073054 </v>
   <v>       0.00108797      -0.00350252       0.00376788 </v>
   <v>      -0.00154295      -0.00158512       0.00073054 </v>
   <v>      -0.00357726       0.00080905       0.00376788 </v>
   <v>      -0.00200825       0.00107583      -0.00033510 </v>
   <v>       0.00204203       0.00336389       0.00076784 </v>
   <v>       0.00193582       0.00120128      -0.00033510 </v>
   <v>      -0.00060128       0.00212879       0.00073054 </v>
   <v>      -0.00065459      -0.00189296      -0.00206824 </v>
   <v>      -0.00131205       0.00151337      -0.00206824 </v>
   <v>       0.00196665       0.00037959      -0.00206824 </v>
   <v>       0.00238901      -0.00015865       0.00117489 </v>
   <v>      -0.00133190      -0.00198961       0.00117489 </v>
   <v>      -0.00105710       0.00214827       0.00117489 </v>
   <v>      -0.00099021       0.00272766       0.00069192 </v>
   <v>      -0.00186712      -0.00222138       0.00069192 </v>
   <v>      -0.00852842      -0.00152709      -0.00126019 </v>
   <v>       0.00294171       0.00814937      -0.00126019 </v>
   <v>       0.00404814      -0.00100164      -0.00075127 </v>
   <v>      -0.00352580      -0.00106972       0.00176201 </v>
   <v>      -0.00007802      -0.00052509       0.00104265 </v>
   <v>      -0.00242097      -0.00076354      -0.00230814 </v>
   <v>      -0.00525902       0.00122290      -0.00476302 </v>
   <v>      -0.00289152      -0.00300497      -0.00075127 </v>
   <v>       0.00083650       0.00358829       0.00176201 </v>
   <v>      -0.00041573       0.00033011       0.00104265 </v>
   <v>       0.00054924       0.00247839      -0.00230814 </v>
   <v>       0.00368858       0.00394300      -0.00476302 </v>
   <v>      -0.00115663       0.00400661      -0.00075127 </v>
   <v>       0.00268931      -0.00251858       0.00176201 </v>
   <v>       0.00157045      -0.00516590      -0.00476302 </v>
   <v>      -0.00487080      -0.00306935      -0.00224243 </v>
   <v>       0.00607924       0.00311110       0.00114498 </v>
   <v>      -0.00409111      -0.00010869       0.00579597 </v>
   <v>      -0.00022273       0.00575291      -0.00224243 </v>
   <v>      -0.00034533      -0.00682033       0.00114498 </v>
   <v>       0.00195142       0.00359735       0.00579597 </v>
   <v>       0.00213968      -0.00348866       0.00579597 </v>
   <v>       0.00285733      -0.00050628       0.00069192 </v>
   <v>       0.00558671      -0.00662228      -0.00126019 </v>
   <v>       0.00049375       0.00019497       0.00104265 </v>
   <v>       0.00187172      -0.00171485      -0.00230814 </v>
   <v>       0.00509354      -0.00268356      -0.00224243 </v>
   <v>      -0.00573392       0.00370923       0.00114498 </v>
   <v>       0.00139208       0.00138605       0.00223590 </v>
   <v>       0.00050432      -0.00189860       0.00223590 </v>
   <v>      -0.00189640       0.00051255       0.00223590 </v>
   <v>      -0.00111779      -0.00015958       0.00126979 </v>
   <v>       0.00042069       0.00104783       0.00126979 </v>
   <v>       0.00069710      -0.00088824       0.00126979 </v>
   <v>      -0.00203962       0.00024938       0.00322478 </v>
   <v>       0.00149606       0.00250410      -0.00488085 </v>
   <v>       0.00037190      -0.00204661      -0.00123310 </v>
   <v>       0.00123578       0.00164168       0.00322478 </v>
   <v>       0.00142059      -0.00254768      -0.00488085 </v>
   <v>      -0.00195837       0.00070123      -0.00123310 </v>
   <v>      -0.00291665       0.00004357      -0.00488085 </v>
   <v>       0.00158647       0.00134538      -0.00123310 </v>
   <v>       0.00662214       0.00386802      -0.00094160 </v>
   <v>       0.00003874      -0.00766895      -0.00094160 </v>
   <v>       0.00080385      -0.00189105       0.00322478 </v>
   <v>      -0.00666087       0.00380093      -0.00094160 </v>
  </varray>
  <varray name="stress" >
   <v>       0.00833979       0.00000000       0.00000000 </v>
   <v>      -0.00000000       0.00833979       0.00000000 </v>
   <v>       0.00000000       0.00000000      -0.14517884 </v>
  </varray>
  <energy>
   <i name="e_fr_energy">   -533.08912879 </i>
   <i name="e_wo_entrp">   -533.08912879 </i>
   <i name="e_0_energy">     -0.00000000 </i>
  </energy>
  <time name="totalsc">  830.97  838.23</time>
  <eigenvalues>
   <array>
    <dimension dim="1">band</dimension>
    <dimension dim="2">kpoint</dimension>
    <dimension dim="3">spin</dimension>
    <field>eigene</field>
    <field>occ</field>
    <set>
     <set comment="spin 1">
      <set comment="kpoint 1">
       <r>  -25.5024    1.0000 </r>
       <r>  -25.3491    1.0000 </r>
       <r>  -24.4480    1.0000 </r>
       <r>  -24.4475    1.0000 </r>
       <r>  -24.4386    1.0000 </r>
       <r>  -23.6146    1.0000 </r>
       <r>  -23.6144    1.0000 </r>
       <r>  -23.4584    1.0000 </r>
       <r>  -23.4037    1.0000 </r>
       <r>  -23.4036    1.0000 </r>
       <r>  -23.2436    1.0000 </r>
       <r>  -22.4940    1.0000 </r>
       <r>  -22.4936    1.0000 </r>
       <r>  -22.3909    1.0000 </r>
       <r>  -22.2911    1.0000 </r>
       <r>  -22.2907    1.0000 </r>
       <r>  -22.1183    1.0000 </r>
       <r>  -22.1182    1.0000 </r>
       <r>  -20.7585    1.0000 </r>
       <r>  -20.7467    1.0000 </r>
       <r>  -20.7466    1.0000 </r>
       <r>  -18.9219    1.0000 </r>
       <r>  -18.9218    1.0000 </r>
       <r>  -18.8609    1.0000 </r>
       <r>  -18.7754    1.0000 </r>
       <r>  -18.7753    1.0000 </r>
       <r>  -18.6104    1.0000 </r>
       <r>  -17.9400    1.0000 </r>
       <r>  -17.9399    1.0000 </r>
       <r>  -17.0857    1.0000 </r>
       <r>  -17.0856    1.0000 </r>
       <r>  -17.0768    1.0000 </r>
       <r>  -16.3968    1.0000 </r>
       <r>  -16.3967    1.0000 </r>
       <r>  -16.2961    1.0000 </r>
       <r>  -16.1699    1.0000 </r>
       <r>  -16.0770    1.0000 </r>
       <r>  -16.0768    1.0000 </r>
       <r>  -15.6281    1.0000 </r>
       <r>  -15.2612    1.0000 </r>
       <r>  -15.2610    1.0000 </r>
       <r>  -14.5088    1.0000 </r>
       <r>  -14.1512    1.0000 </r>
       <r>  -14.1511    1.0000 </r>
       <r>  -13.8807    1.0000 </r>
       <r>  -13.5827    1.0000 </r>
       <r>  -13.5366    1.0000 </r>
       <r>  -13.5365    1.0000 </r>
       <r>  -13.2203    1.0000 </r>
       <r>  -13.0412    1.0000 </r>
       <r>  -13.0410    1.0000 </r>
       <r>  -12.9053    1.0000 </r>
       <r>  -12.8610    1.0000 </r>
       <r>  -12.8608    1.0000 </r>
       <r>  -12.6635    1.0000 </r>
       <r>  -12.4391    1.0000 </r>
       <r>  -12.4390    1.0000 </r>
       <r>  -12.0055    1.0000 </r>
       <r>  -12.0054    1.0000 </r>
       <r>  -11.8721    1.0000 </r>
       <r>  -11.6298    1.0000 </r>
       <r>  -11.4935    1.0000 </r>
       <r>  -11.4934    1.0000 </r>
       <r>  -11.4870    1.0000 </r>
       <r>  -11.3681    1.0000 </r>
       <r>  -11.1959    1.0000 </r>
       <r>  -11.0414    1.0000 </r>
       <r>  -10.9489    1.0000 </r>
       <r>  -10.9488    1.0000 </r>
       <r>  -10.8541    1.0000 </r>
       <r>  -10.8539    1.0000 </r>
       <r>  -10.7611    1.0000 </r>
       <r>  -10.5313    1.0000 </r>
       <r>  -10.4551    1.0000 </r>
       <r>  -10.4550    1.0000 </r>
       <r>  -10.2858    1.0000 </r>
       <r>  -10.2857    1.0000 </r>
       <r>  -10.1822    1.0000 </r>
       <r>   -9.9710    1.0000 </r>
       <r>   -9.9709    1.0000 </r>
       <r>   -9.7415    1.0000 </r>
       <r>   -9.7414    1.0000 </r>
       <r>   -9.7311    1.0000 </r>
       <r>   -9.4495    1.0000 </r>
       <r>   -9.4494    1.0000 </r>
       <r>   -9.1540    1.0000 </r>
       <r>   -9.1228    1.0000 </r>
       <r>   -9.1227    1.0000 </r>
       <r>   -9.0910    1.0000 </r>
       <r>   -8.7896    1.0000 </r>
       <r>   -8.6357    1.0000 </r>
       <r>   -8.6324    1.0000 </r>
       <r>   -8.6323    1.0000 </r>
       <r>   -8.5937    1.0000 </r>
       <r>   -8.5936    1.0000 </r>
       <r>   -8.4746    1.0000 </r>
       <r>   -8.3788    1.0000 </r>
       <r>   -8.3786    1.0000 </r>
       <r>   -7.9667    1.0000 </r>
       <r>   -7.6505    1.0000 </r>
       <r>   -7.6503    1.0000 </r>
       <r>   -7.5785    1.0000 </r>
       <r>   -7.1526    1.0000 </r>
       <r>   -7.1525    1.0000 </r>
       <r>   -6.9684    1.0000 </r>
       <r>   -6.9448    1.0000 </r>
       <r>   -6.9445    1.0000 </r>
       <r>   -6.6202    1.0000 </r>
       <r>   -6.5504    1.0000 </r>
       <r>   -6.5503    1.0000 </r>
       <r>   -6.4903    1.0000 </r>
       <r>   -6.4580    1.0000 </r>
       <r>   -6.4578    1.0000 </r>
       <r>   -6.1435    1.0000 </r>
       <r>   -6.1137    1.0000 </r>
       <r>   -6.1136    1.0000 </r>
       <r>   -5.9768    1.0000 </r>
       <r>   -5.9767    1.0000 </r>
       <r>   -5.8271    1.0000 </r>
       <r>   -5.8271    1.0000 </r>
       <r>   -5.5197    1.0000 </r>
       <r>   -5.5058    1.0000 </r>
       <r>   -5.5056    1.0000 </r>
       <r>   -4.9143    1.0000 </r>
       <r>   -4.9105    1.0000 </r>
       <r>   -4.9104    1.0000 </r>
       <r>   -3.4741    0.0000 </r>
       <r>   -3.4741    0.0000 </r>
       <r>   -2.9348    0.0000 </r>
       <r>   -2.9253    0.0000 </r>
       <r>   -2.9253    0.0000 </r>
       <r>   -2.5453    0.0000 </r>
       <r>   -2.5451    0.0000 </r>
       <r>   -2.1543    0.0000 </r>
       <r>   -1.7972    0.0000 </r>
       <r>   -1.5623    0.0000 </r>
       <r>   -1.5622    0.0000 </r>
       <r>   -1.5355    0.0000 </r>
       <r>   -0.6488    0.0000 </r>
       <r>   -0.6487    0.0000 </r>
       <r>   -0.1535    0.0000 </r>
       <r>   -0.0643    0.0000 </r>
       <r>   -0.0642    0.0000 </r>
       <r>    0.0320    0.0000 </r>
       <r>    0.1279    0.0000 </r>
       <r>    0.1282    0.0000 </r>
       <r>    0.1994    0.0000 </r>
       <r>    0.1997    0.0000 </r>
       <r>    0.2350    0.0000 </r>
       <r>    0.3478    0.0000 </r>
       <r>    0.4921    0.0000 </r>
       <r>    0.4923    0.0000 </r>
       <r>    0.4935    0.0000 </r>
       <r>    0.6505    0.0000 </r>
       <r>    0.6508    0.0000 </r>
       <r>    0.6604    0.0000 </r>
       <r>    0.7429    0.0000 </r>
       <r>    0.7432    0.0000 </r>
       <r>    0.7467    0.0000 </r>
       <r>    0.7756    0.0000 </r>
       <r>    0.8651    0.0000 </r>
       <r>    0.9188    0.0000 </r>
       <r>    0.9258    0.0000 </r>
       <r>    0.9262    0.0000 </r>
       <r>    0.9800    0.0000 </r>
       <r>    0.9802    0.0000 </r>
       <r>    1.0248    0.0000 </r>
       <r>    1.0498    0.0000 </r>
       <r>    1.0501    0.0000 </r>
       <r>    1.0861    0.0000 </r>
       <r>    1.0862    0.0000 </r>
       <r>    1.1178    0.0000 </r>
       <r>    1.1453    0.0000 </r>
       <r>    1.1781    0.0000 </r>
       <r>    1.1786    0.0000 </r>
       <r>    1.2599    0.0000 </r>
      </set>
      <set comment="kpoint 2">
       <r>  -25.5024    1.0000 </r>
       <r>  -25.3491    1.0000 </r>
       <r>  -24.4479    1.0000 </r>
       <r>  -24.4475    1.0000 </r>
       <r>  -24.4387    1.0000 </r>
       <r>  -23.6146    1.0000 </r>
       <r>  -23.6144    1.0000 </r>
       <r>  -23.4586    1.0000 </r>
       <r>  -23.4037    1.0000 </r>
       <r>  -23.4034    1.0000 </r>
       <r>  -23.2436    1.0000 </r>
       <r>  -22.4940    1.0000 </r>
       <r>  -22.4936    1.0000 </r>
       <r>  -22.3912    1.0000 </r>
       <r>  -22.2911    1.0000 </r>
       <r>  -22.2905    1.0000 </r>
       <r>  -22.1183    1.0000 </r>
       <r>  -22.1182    1.0000 </r>
       <r>  -20.7585    1.0000 </r>
       <r>  -20.7467    1.0000 </r>
       <r>  -20.7466    1.0000 </r>
       <r>  -18.9218    1.0000 </r>
       <r>  -18.9217    1.0000 </r>
       <r>  -18.8609    1.0000 </r>
       <r>  -18.7753    1.0000 </r>
       <r>  -18.7753    1.0000 </r>
       <r>  -18.6109    1.0000 </r>
       <r>  -17.9399    1.0000 </r>
       <r>  -17.9391    1.0000 </r>
       <r>  -17.1110    1.0000 </r>
       <r>  -17.0856    1.0000 </r>
       <r>  -17.0516    1.0000 </r>
       <r>  -16.3970    1.0000 </r>
       <r>  -16.3967    1.0000 </r>
       <r>  -16.2961    1.0000 </r>
       <r>  -16.1701    1.0000 </r>
       <r>  -16.0770    1.0000 </r>
       <r>  -16.0768    1.0000 </r>
       <r>  -15.6298    1.0000 </r>
       <r>  -15.2611    1.0000 </r>
       <r>  -15.2591    1.0000 </r>
       <r>  -14.5103    1.0000 </r>
       <r>  -14.1511    1.0000 </r>
       <r>  -14.1501    1.0000 </r>
       <r>  -13.8808    1.0000 </r>
       <r>  -13.5830    1.0000 </r>
       <r>  -13.5366    1.0000 </r>
       <r>  -13.5363    1.0000 </r>
       <r>  -13.2203    1.0000 </r>
       <r>  -13.0411    1.0000 </r>
       <r>  -13.0409    1.0000 </r>
       <r>  -12.9058    1.0000 </r>
       <r>  -12.8610    1.0000 </r>
       <r>  -12.8606    1.0000 </r>
       <r>  -12.6642    1.0000 </r>
       <r>  -12.4389    1.0000 </r>
       <r>  -12.4381    1.0000 </r>
       <r>  -12.0055    1.0000 </r>
       <r>  -12.0054    1.0000 </r>
       <r>  -11.8723    1.0000 </r>
       <r>  -11.6299    1.0000 </r>
       <r>  -11.4940    1.0000 </r>
       <r>  -11.4934    1.0000 </r>
       <r>  -11.4865    1.0000 </r>
       <r>  -11.3681    1.0000 </r>
       <r>  -11.1962    1.0000 </r>
       <r>  -11.0414    1.0000 </r>
       <r>  -10.9489    1.0000 </r>
       <r>  -10.9483    1.0000 </r>
       <r>  -10.8540    1.0000 </r>
       <r>  -10.8538    1.0000 </r>
       <r>  -10.7612    1.0000 </r>
       <r>  -10.5335    1.0000 </r>
       <r>  -10.4549    1.0000 </r>
       <r>  -10.4530    1.0000 </r>
       <r>  -10.2859    1.0000 </r>
       <r>  -10.2858    1.0000 </r>
       <r>  -10.1821    1.0000 </r>
       <r>   -9.9712    1.0000 </r>
       <r>   -9.9710    1.0000 </r>
       <r>   -9.7415    1.0000 </r>
       <r>   -9.7414    1.0000 </r>
       <r>   -9.7311    1.0000 </r>
       <r>   -9.4495    1.0000 </r>
       <r>   -9.4491    1.0000 </r>
       <r>   -9.1559    1.0000 </r>
       <r>   -9.1227    1.0000 </r>
       <r>   -9.1213    1.0000 </r>
       <r>   -9.0908    1.0000 </r>
       <r>   -8.7895    1.0000 </r>
       <r>   -8.6376    1.0000 </r>
       <r>   -8.6324    1.0000 </r>
       <r>   -8.6307    1.0000 </r>
       <r>   -8.5936    1.0000 </r>
       <r>   -8.5934    1.0000 </r>
       <r>   -8.4745    1.0000 </r>
       <r>   -8.3789    1.0000 </r>
       <r>   -8.3786    1.0000 </r>
       <r>   -7.9665    1.0000 </r>
       <r>   -7.6536    1.0000 </r>
       <r>   -7.6504    1.0000 </r>
       <r>   -7.5753    1.0000 </r>
       <r>   -7.1530    1.0000 </r>
       <r>   -7.1526    1.0000 </r>
       <r>   -6.9684    1.0000 </r>
       <r>   -6.9448    1.0000 </r>
       <r>   -6.9445    1.0000 </r>
       <r>   -6.6201    1.0000 </r>
       <r>   -6.5504    1.0000 </r>
       <r>   -6.5503    1.0000 </r>
       <r>   -6.4903    1.0000 </r>
       <r>   -6.4580    1.0000 </r>
       <r>   -6.4579    1.0000 </r>
       <r>   -6.1434    1.0000 </r>
       <r>   -6.1137    1.0000 </r>
       <r>   -6.1136    1.0000 </r>
       <r>   -5.9768    1.0000 </r>
       <r>   -5.9767    1.0000 </r>
       <r>   -5.8272    1.0000 </r>
       <r>   -5.8272    1.0000 </r>
       <r>   -5.5197    1.0000 </r>
       <r>   -5.5058    1.0000 </r>
       <r>   -5.5056    1.0000 </r>
       <r>   -4.9145    1.0000 </r>
       <r>   -4.9104    1.0000 </r>
       <r>   -4.9103    1.0000 </r>
       <r>   -3.4741    0.0000 </r>
       <r>   -3.4737    0.0000 </r>
       <r>   -2.9503    0.0000 </r>
       <r>   -2.9253    0.0000 </r>
       <r>   -2.9100    0.0000 </r>
       <r>   -2.5454    0.0000 </r>
       <r>   -2.5451    0.0000 </r>
       <r>   -2.1539    0.0000 </r>
       <r>   -1.7978    0.0000 </r>
       <r>   -1.5623    0.0000 </r>
       <r>   -1.5622    0.0000 </r>
       <r>   -1.5356    0.0000 </r>
       <r>   -0.6487    0.0000 </r>
       <r>   -0.6480    0.0000 </r>
       <r>   -0.1533    0.0000 </r>
       <r>   -0.0672    0.0000 </r>
       <r>   -0.0642    0.0000 </r>
       <r>    0.0347    0.0000 </r>
       <r>    0.1271    0.0000 </r>
       <r>    0.1273    0.0000 </r>
       <r>    0.1990    0.0000 </r>
       <r>    0.2002    0.0000 </r>
       <r>    0.2360    0.0000 </r>
       <r>    0.3489    0.0000 </r>
       <r>    0.4905    0.0000 </r>
       <r>    0.4919    0.0000 </r>
       <r>    0.4952    0.0000 </r>
       <r>    0.6503    0.0000 </r>
       <r>    0.6508    0.0000 </r>
       <r>    0.6608    0.0000 </r>
       <r>    0.7322    0.0000 </r>
       <r>    0.7430    0.0000 </r>
       <r>    0.7569    0.0000 </r>
       <r>    0.7757    0.0000 </r>
       <r>    0.8644    0.0000 </r>
       <r>    0.9152    0.0000 </r>
       <r>    0.9258    0.0000 </r>
       <r>    0.9303    0.0000 </r>
       <r>    0.9799    0.0000 </r>
       <r>    0.9800    0.0000 </r>
       <r>    1.0214    0.0000 </r>
       <r>    1.0482    0.0000 </r>
       <r>    1.0507    0.0000 </r>
       <r>    1.0855    0.0000 </r>
       <r>    1.0878    0.0000 </r>
       <r>    1.1198    0.0000 </r>
       <r>    1.1463    0.0000 </r>
       <r>    1.1787    0.0000 </r>
       <r>    1.1802    0.0000 </r>
       <r>    1.2610    0.0000 </r>
      </set>
      <set comment="kpoint 3">
       <r>  -25.5024    1.0000 </r>
       <r>  -25.3491    1.0000 </r>
       <r>  -24.4479    1.0000 </r>
       <r>  -24.4475    1.0000 </r>
       <r>  -24.4387    1.0000 </r>
       <r>  -23.6145    1.0000 </r>
       <r>  -23.6144    1.0000 </r>
       <r>  -23.4592    1.0000 </r>
       <r>  -23.4036    1.0000 </r>
       <r>  -23.4029    1.0000 </r>
       <r>  -23.2437    1.0000 </r>
       <r>  -22.4939    1.0000 </r>
       <r>  -22.4933    1.0000 </r>
       <r>  -22.3920    1.0000 </r>
       <r>  -22.2911    1.0000 </r>
       <r>  -22.2899    1.0000 </r>
       <r>  -22.1185    1.0000 </r>
       <r>  -22.1182    1.0000 </r>
       <r>  -20.7584    1.0000 </r>
       <r>  -20.7467    1.0000 </r>
       <r>  -20.7466    1.0000 </r>
       <r>  -18.9218    1.0000 </r>
       <r>  -18.9213    1.0000 </r>
       <r>  -18.8611    1.0000 </r>
       <r>  -18.7753    1.0000 </r>
       <r>  -18.7750    1.0000 </r>
       <r>  -18.6123    1.0000 </r>
       <r>  -17.9399    1.0000 </r>
       <r>  -17.9364    1.0000 </r>
       <r>  -17.1401    1.0000 </r>
       <r>  -17.0856    1.0000 </r>
       <r>  -17.0225    1.0000 </r>
       <r>  -16.3976    1.0000 </r>
       <r>  -16.3967    1.0000 </r>
       <r>  -16.2959    1.0000 </r>
       <r>  -16.1709    1.0000 </r>
       <r>  -16.0770    1.0000 </r>
       <r>  -16.0768    1.0000 </r>
       <r>  -15.6345    1.0000 </r>
       <r>  -15.2611    1.0000 </r>
       <r>  -15.2532    1.0000 </r>
       <r>  -14.5145    1.0000 </r>
       <r>  -14.1511    1.0000 </r>
       <r>  -14.1470    1.0000 </r>
       <r>  -13.8811    1.0000 </r>
       <r>  -13.5842    1.0000 </r>
       <r>  -13.5366    1.0000 </r>
       <r>  -13.5355    1.0000 </r>
       <r>  -13.2204    1.0000 </r>
       <r>  -13.0410    1.0000 </r>
       <r>  -13.0404    1.0000 </r>
       <r>  -12.9070    1.0000 </r>
       <r>  -12.8616    1.0000 </r>
       <r>  -12.8597    1.0000 </r>
       <r>  -12.6661    1.0000 </r>
       <r>  -12.4386    1.0000 </r>
       <r>  -12.4353    1.0000 </r>
       <r>  -12.0056    1.0000 </r>
       <r>  -12.0053    1.0000 </r>
       <r>  -11.8726    1.0000 </r>
       <r>  -11.6304    1.0000 </r>
       <r>  -11.4952    1.0000 </r>
       <r>  -11.4934    1.0000 </r>
       <r>  -11.4852    1.0000 </r>
       <r>  -11.3680    1.0000 </r>
       <r>  -11.1971    1.0000 </r>
       <r>  -11.0414    1.0000 </r>
       <r>  -10.9491    1.0000 </r>
       <r>  -10.9467    1.0000 </r>
       <r>  -10.8538    1.0000 </r>
       <r>  -10.8532    1.0000 </r>
       <r>  -10.7616    1.0000 </r>
       <r>  -10.5394    1.0000 </r>
       <r>  -10.4545    1.0000 </r>
       <r>  -10.4476    1.0000 </r>
       <r>  -10.2859    1.0000 </r>
       <r>  -10.2859    1.0000 </r>
       <r>  -10.1818    1.0000 </r>
       <r>   -9.9721    1.0000 </r>
       <r>   -9.9713    1.0000 </r>
       <r>   -9.7415    1.0000 </r>
       <r>   -9.7413    1.0000 </r>
       <r>   -9.7309    1.0000 </r>
       <r>   -9.4495    1.0000 </r>
       <r>   -9.4482    1.0000 </r>
       <r>   -9.1610    1.0000 </r>
       <r>   -9.1227    1.0000 </r>
       <r>   -9.1180    1.0000 </r>
       <r>   -9.0902    1.0000 </r>
       <r>   -8.7890    1.0000 </r>
       <r>   -8.6408    1.0000 </r>
       <r>   -8.6324    1.0000 </r>
       <r>   -8.6282    1.0000 </r>
       <r>   -8.5936    1.0000 </r>
       <r>   -8.5927    1.0000 </r>
       <r>   -8.4742    1.0000 </r>
       <r>   -8.3793    1.0000 </r>
       <r>   -8.3786    1.0000 </r>
       <r>   -7.9659    1.0000 </r>
       <r>   -7.6618    1.0000 </r>
       <r>   -7.6504    1.0000 </r>
       <r>   -7.5667    1.0000 </r>
       <r>   -7.1544    1.0000 </r>
       <r>   -7.1526    1.0000 </r>
       <r>   -6.9683    1.0000 </r>
       <r>   -6.9448    1.0000 </r>
       <r>   -6.9445    1.0000 </r>
       <r>   -6.6196    1.0000 </r>
       <r>   -6.5506    1.0000 </r>
       <r>   -6.5503    1.0000 </r>
       <r>   -6.4902    1.0000 </r>
       <r>   -6.4583    1.0000 </r>
       <r>   -6.4579    1.0000 </r>
       <r>   -6.1432    1.0000 </r>
       <r>   -6.1138    1.0000 </r>
       <r>   -6.1136    1.0000 </r>
       <r>   -5.9767    1.0000 </r>
       <r>   -5.9766    1.0000 </r>
       <r>   -5.8273    1.0000 </r>
       <r>   -5.8272    1.0000 </r>
       <r>   -5.5197    1.0000 </r>
       <r>   -5.5058    1.0000 </r>
       <r>   -5.5056    1.0000 </r>
       <r>   -4.9150    1.0000 </r>
       <r>   -4.9104    1.0000 </r>
       <r>   -4.9098    1.0000 </r>
       <r>   -3.4741    0.0000 </r>
       <r>   -3.4724    0.0000 </r>
       <r>   -2.9698    0.0000 </r>
       <r>   -2.9253    0.0000 </r>
       <r>   -2.8910    0.0000 </r>
       <r>   -2.5458    0.0000 </r>
       <r>   -2.5451    0.0000 </r>
       <r>   -2.1528    0.0000 </r>
       <r>   -1.7997    0.0000 </r>
       <r>   -1.5623    0.0000 </r>
       <r>   -1.5622    0.0000 </r>
       <r>   -1.5359    0.0000 </r>
       <r>   -0.6488    0.0000 </r>
       <r>   -0.6456    0.0000 </r>
       <r>   -0.1525    0.0000 </r>
       <r>   -0.0754    0.0000 </r>
       <r>   -0.0643    0.0000 </r>
       <r>    0.0419    0.0000 </r>
       <r>    0.1239    0.0000 </r>
       <r>    0.1256    0.0000 </r>
       <r>    0.1972    0.0000 </r>
       <r>    0.2025    0.0000 </r>
       <r>    0.2387    0.0000 </r>
       <r>    0.3519    0.0000 </r>
       <r>    0.4882    0.0000 </r>
       <r>    0.4908    0.0000 </r>
       <r>    0.4978    0.0000 </r>
       <r>    0.6498    0.0000 </r>
       <r>    0.6511    0.0000 </r>
       <r>    0.6618    0.0000 </r>
       <r>    0.7199    0.0000 </r>
       <r>    0.7432    0.0000 </r>
       <r>    0.7636    0.0000 </r>
       <r>    0.7797    0.0000 </r>
       <r>    0.8625    0.0000 </r>
       <r>    0.9109    0.0000 </r>
       <r>    0.9247    0.0000 </r>
       <r>    0.9370    0.0000 </r>
       <r>    0.9788    0.0000 </r>
       <r>    0.9796    0.0000 </r>
       <r>    1.0138    0.0000 </r>
       <r>    1.0441    0.0000 </r>
       <r>    1.0509    0.0000 </r>
       <r>    1.0837    0.0000 </r>
       <r>    1.0921    0.0000 </r>
       <r>    1.1256    0.0000 </r>
       <r>    1.1487    0.0000 </r>
       <r>    1.1810    0.0000 </r>
       <r>    1.1849    0.0000 </r>
       <r>    1.2643    0.0000 </r>
      </set>
      <set comment="kpoint 4">
       <r>  -25.5024    1.0000 </r>
       <r>  -25.3491    1.0000 </r>
       <r>  -24.4479    1.0000 </r>
       <r>  -24.4475    1.0000 </r>
       <r>  -24.4388    1.0000 </r>
       <r>  -23.6145    1.0000 </r>
       <r>  -23.6142    1.0000 </r>
       <r>  -23.4601    1.0000 </r>
       <r>  -23.4036    1.0000 </r>
       <r>  -23.4020    1.0000 </r>
       <r>  -23.2439    1.0000 </r>
       <r>  -22.4938    1.0000 </r>
       <r>  -22.4929    1.0000 </r>
       <r>  -22.3933    1.0000 </r>
       <r>  -22.2910    1.0000 </r>
       <r>  -22.2888    1.0000 </r>
       <r>  -22.1187    1.0000 </r>
       <r>  -22.1182    1.0000 </r>
       <r>  -20.7583    1.0000 </r>
       <r>  -20.7468    1.0000 </r>
       <r>  -20.7466    1.0000 </r>
       <r>  -18.9218    1.0000 </r>
       <r>  -18.9205    1.0000 </r>
       <r>  -18.8613    1.0000 </r>
       <r>  -18.7753    1.0000 </r>
       <r>  -18.7745    1.0000 </r>
       <r>  -18.6146    1.0000 </r>
       <r>  -17.9399    1.0000 </r>
       <r>  -17.9319    1.0000 </r>
       <r>  -17.1692    1.0000 </r>
       <r>  -17.0857    1.0000 </r>
       <r>  -16.9933    1.0000 </r>
       <r>  -16.3986    1.0000 </r>
       <r>  -16.3967    1.0000 </r>
       <r>  -16.2957    1.0000 </r>
       <r>  -16.1722    1.0000 </r>
       <r>  -16.0770    1.0000 </r>
       <r>  -16.0768    1.0000 </r>
       <r>  -15.6420    1.0000 </r>
       <r>  -15.2611    1.0000 </r>
       <r>  -15.2436    1.0000 </r>
       <r>  -14.5213    1.0000 </r>
       <r>  -14.1510    1.0000 </r>
       <r>  -14.1419    1.0000 </r>
       <r>  -13.8817    1.0000 </r>
       <r>  -13.5860    1.0000 </r>
       <r>  -13.5367    1.0000 </r>
       <r>  -13.5342    1.0000 </r>
       <r>  -13.2205    1.0000 </r>
       <r>  -13.0408    1.0000 </r>
       <r>  -13.0395    1.0000 </r>
       <r>  -12.9091    1.0000 </r>
       <r>  -12.8627    1.0000 </r>
       <r>  -12.8584    1.0000 </r>
       <r>  -12.6692    1.0000 </r>
       <r>  -12.4381    1.0000 </r>
       <r>  -12.4308    1.0000 </r>
       <r>  -12.0058    1.0000 </r>
       <r>  -12.0053    1.0000 </r>
       <r>  -11.8731    1.0000 </r>
       <r>  -11.6312    1.0000 </r>
       <r>  -11.4968    1.0000 </r>
       <r>  -11.4935    1.0000 </r>
       <r>  -11.4837    1.0000 </r>
       <r>  -11.3678    1.0000 </r>
       <r>  -11.1987    1.0000 </r>
       <r>  -11.0415    1.0000 </r>
       <r>  -10.9494    1.0000 </r>
       <r>  -10.9441    1.0000 </r>
       <r>  -10.8535    1.0000 </r>
       <r>  -10.8522    1.0000 </r>
       <r>  -10.7622    1.0000 </r>
       <r>  -10.5479    1.0000 </r>
       <r>  -10.4539    1.0000 </r>
       <r>  -10.4399    1.0000 </r>
       <r>  -10.2862    1.0000 </r>
       <r>  -10.2860    1.0000 </r>
       <r>  -10.1812    1.0000 </r>
       <r>   -9.9735    1.0000 </r>
       <r>   -9.9717    1.0000 </r>
       <r>   -9.7414    1.0000 </r>
       <r>   -9.7412    1.0000 </r>
       <r>   -9.7307    1.0000 </r>
       <r>   -9.4496    1.0000 </r>
       <r>   -9.4468    1.0000 </r>
       <r>   -9.1679    1.0000 </r>
       <r>   -9.1226    1.0000 </r>
       <r>   -9.1140    1.0000 </r>
       <r>   -9.0892    1.0000 </r>
       <r>   -8.7881    1.0000 </r>
       <r>   -8.6443    1.0000 </r>
       <r>   -8.6324    1.0000 </r>
       <r>   -8.6259    1.0000 </r>
       <r>   -8.5936    1.0000 </r>
       <r>   -8.5915    1.0000 </r>
       <r>   -8.4737    1.0000 </r>
       <r>   -8.3799    1.0000 </r>
       <r>   -8.3786    1.0000 </r>
       <r>   -7.9650    1.0000 </r>
       <r>   -7.6728    1.0000 </r>
       <r>   -7.6504    1.0000 </r>
       <r>   -7.5552    1.0000 </r>
       <r>   -7.1565    1.0000 </r>
       <r>   -7.1526    1.0000 </r>
       <r>   -6.9681    1.0000 </r>
       <r>   -6.9448    1.0000 </r>
       <r>   -6.9445    1.0000 </r>
       <r>   -6.6189    1.0000 </r>
       <r>   -6.5509    1.0000 </r>
       <r>   -6.5503    1.0000 </r>
       <r>   -6.4901    1.0000 </r>
       <r>   -6.4587    1.0000 </r>
       <r>   -6.4579    1.0000 </r>
       <r>   -6.1429    1.0000 </r>
       <r>   -6.1139    1.0000 </r>
       <r>   -6.1136    1.0000 </r>
       <r>   -5.9766    1.0000 </r>
       <r>   -5.9764    1.0000 </r>
       <r>   -5.8276    1.0000 </r>
       <r>   -5.8274    1.0000 </r>
       <r>   -5.5195    1.0000 </r>
       <r>   -5.5059    1.0000 </r>
       <r>   -5.5055    1.0000 </r>
       <r>   -4.9156    1.0000 </r>
       <r>   -4.9104    1.0000 </r>
       <r>   -4.9093    1.0000 </r>
       <r>   -3.4741    0.0000 </r>
       <r>   -3.4703    0.0000 </r>
       <r>   -2.9896    0.0000 </r>
       <r>   -2.9253    0.0000 </r>
       <r>   -2.8722    0.0000 </r>
       <r>   -2.5464    0.0000 </r>
       <r>   -2.5451    0.0000 </r>
       <r>   -2.1510    0.0000 </r>
       <r>   -1.8027    0.0000 </r>
       <r>   -1.5623    0.0000 </r>
       <r>   -1.5622    0.0000 </r>
       <r>   -1.5364    0.0000 </r>
       <r>   -0.6488    0.0000 </r>
       <r>   -0.6416    0.0000 </r>
       <r>   -0.1513    0.0000 </r>
       <r>   -0.0871    0.0000 </r>
       <r>   -0.0643    0.0000 </r>
       <r>    0.0520    0.0000 </r>
       <r>    0.1186    0.0000 </r>
       <r>    0.1233    0.0000 </r>
       <r>    0.1951    0.0000 </r>
       <r>    0.2060    0.0000 </r>
       <r>    0.2425    0.0000 </r>
       <r>    0.3567    0.0000 </r>
       <r>    0.4855    0.0000 </r>
       <r>    0.4892    0.0000 </r>
       <r>    0.5007    0.0000 </r>
       <r>    0.6488    0.0000 </r>
       <r>    0.6515    0.0000 </r>
       <r>    0.6633    0.0000 </r>
       <r>    0.7083    0.0000 </r>
       <r>    0.7432    0.0000 </r>
       <r>    0.7620    0.0000 </r>
       <r>    0.7906    0.0000 </r>
       <r>    0.8597    0.0000 </r>
       <r>    0.9082    0.0000 </r>
       <r>    0.9228    0.0000 </r>
       <r>    0.9427    0.0000 </r>
       <r>    0.9764    0.0000 </r>
       <r>    0.9789    0.0000 </r>
       <r>    1.0058    0.0000 </r>
       <r>    1.0392    0.0000 </r>
       <r>    1.0494    0.0000 </r>
       <r>    1.0811    0.0000 </r>
       <r>    1.0977    0.0000 </r>
       <r>    1.1336    0.0000 </r>
       <r>    1.1514    0.0000 </r>
       <r>    1.1856    0.0000 </r>
       <r>    1.1925    0.0000 </r>
       <r>    1.2690    0.0000 </r>
      </set>
      <set comment="kpoint 5">
       <r>  -25.5024    1.0000 </r>
       <r>  -25.3491    1.0000 </r>
       <r>  -24.4478    1.0000 </r>
       <r>  -24.4475    1.0000 </r>
       <r>  -24.4389    1.0000 </r>
       <r>  -23.6145    1.0000 </r>
       <r>  -23.6141    1.0000 </r>
       <r>  -23.4612    1.0000 </r>
       <r>  -23.4036    1.0000 </r>
       <r>  -23.4008    1.0000 </r>
       <r>  -23.2441    1.0000 </r>
       <r>  -22.4938    1.0000 </r>
       <r>  -22.4922    1.0000 </r>
       <r>  -22.3951    1.0000 </r>
       <r>  -22.2910    1.0000 </r>
       <r>  -22.2873    1.0000 </r>
       <r>  -22.1191    1.0000 </r>
       <r>  -22.1182    1.0000 </r>
       <r>  -20.7582    1.0000 </r>
       <r>  -20.7469    1.0000 </r>
       <r>  -20.7466    1.0000 </r>
       <r>  -18.9218    1.0000 </r>
       <r>  -18.9196    1.0000 </r>
       <r>  -18.8616    1.0000 </r>
       <r>  -18.7753    1.0000 </r>
       <r>  -18.7738    1.0000 </r>
       <r>  -18.6177    1.0000 </r>
       <r>  -17.9399    1.0000 </r>
       <r>  -17.9257    1.0000 </r>
       <r>  -17.1982    1.0000 </r>
       <r>  -17.0857    1.0000 </r>
       <r>  -16.9644    1.0000 </r>
       <r>  -16.4001    1.0000 </r>
       <r>  -16.3967    1.0000 </r>
       <r>  -16.2953    1.0000 </r>
       <r>  -16.1740    1.0000 </r>
       <r>  -16.0770    1.0000 </r>
       <r>  -16.0767    1.0000 </r>
       <r>  -15.6518    1.0000 </r>
       <r>  -15.2612    1.0000 </r>
       <r>  -15.2310    1.0000 </r>
       <r>  -14.5305    1.0000 </r>
       <r>  -14.1508    1.0000 </r>
       <r>  -14.1352    1.0000 </r>
       <r>  -13.8826    1.0000 </r>
       <r>  -13.5883    1.0000 </r>
       <r>  -13.5369    1.0000 </r>
       <r>  -13.5326    1.0000 </r>
       <r>  -13.2207    1.0000 </r>
       <r>  -13.0406    1.0000 </r>
       <r>  -13.0383    1.0000 </r>
       <r>  -12.9117    1.0000 </r>
       <r>  -12.8641    1.0000 </r>
       <r>  -12.8566    1.0000 </r>
       <r>  -12.6732    1.0000 </r>
       <r>  -12.4375    1.0000 </r>
       <r>  -12.4249    1.0000 </r>
       <r>  -12.0061    1.0000 </r>
       <r>  -12.0052    1.0000 </r>
       <r>  -11.8739    1.0000 </r>
       <r>  -11.6322    1.0000 </r>
       <r>  -11.4985    1.0000 </r>
       <r>  -11.4935    1.0000 </r>
       <r>  -11.4821    1.0000 </r>
       <r>  -11.3675    1.0000 </r>
       <r>  -11.2008    1.0000 </r>
       <r>  -11.0416    1.0000 </r>
       <r>  -10.9498    1.0000 </r>
       <r>  -10.9406    1.0000 </r>
       <r>  -10.8531    1.0000 </r>
       <r>  -10.8508    1.0000 </r>
       <r>  -10.7631    1.0000 </r>
       <r>  -10.5580    1.0000 </r>
       <r>  -10.4531    1.0000 </r>
       <r>  -10.4310    1.0000 </r>
       <r>  -10.2866    1.0000 </r>
       <r>  -10.2862    1.0000 </r>
       <r>  -10.1804    1.0000 </r>
       <r>   -9.9754    1.0000 </r>
       <r>   -9.9722    1.0000 </r>
       <r>   -9.7414    1.0000 </r>
       <r>   -9.7409    1.0000 </r>
       <r>   -9.7305    1.0000 </r>
       <r>   -9.4497    1.0000 </r>
       <r>   -9.4447    1.0000 </r>
       <r>   -9.1758    1.0000 </r>
       <r>   -9.1225    1.0000 </r>
       <r>   -9.1101    1.0000 </r>
       <r>   -9.0878    1.0000 </r>
       <r>   -8.7869    1.0000 </r>
       <r>   -8.6479    1.0000 </r>
       <r>   -8.6324    1.0000 </r>
       <r>   -8.6238    1.0000 </r>
       <r>   -8.5936    1.0000 </r>
       <r>   -8.5899    1.0000 </r>
       <r>   -8.4730    1.0000 </r>
       <r>   -8.3808    1.0000 </r>
       <r>   -8.3787    1.0000 </r>
       <r>   -7.9636    1.0000 </r>
       <r>   -7.6853    1.0000 </r>
       <r>   -7.6504    1.0000 </r>
       <r>   -7.5420    1.0000 </r>
       <r>   -7.1595    1.0000 </r>
       <r>   -7.1526    1.0000 </r>
       <r>   -6.9679    1.0000 </r>
       <r>   -6.9448    1.0000 </r>
       <r>   -6.9445    1.0000 </r>
       <r>   -6.6179    1.0000 </r>
       <r>   -6.5514    1.0000 </r>
       <r>   -6.5503    1.0000 </r>
       <r>   -6.4900    1.0000 </r>
       <r>   -6.4593    1.0000 </r>
       <r>   -6.4579    1.0000 </r>
       <r>   -6.1425    1.0000 </r>
       <r>   -6.1141    1.0000 </r>
       <r>   -6.1137    1.0000 </r>
[...]
       <r>   -26.8450     0.0000     0.0000 </r>
       <r>   -26.7465     0.0000     0.0000 </r>
       <r>   -26.6481     0.0000     0.0000 </r>
       <r>   -26.5496     0.0000     0.0000 </r>
       <r>   -26.4512     0.0000     0.0000 </r>
       <r>   -26.3527     0.0000     0.0000 </r>
       <r>   -26.2542     0.0000     0.0000 </r>
       <r>   -26.1558     0.0000     0.0000 </r>
       <r>   -26.0573     0.0000     0.0000 </r>
       <r>   -25.9589     0.0000     0.0000 </r>
       <r>   -25.8604     0.0000     0.0000 </r>
       <r>   -25.7620     0.0000     0.0000 </r>
       <r>   -25.6635     0.0000     0.0000 </r>
       <r>   -25.5651     0.0000     0.0000 </r>
       <r>   -25.4666    20.3145     2.0000 </r>
       <r>   -25.3682     0.0713     2.0070 </r>
       <r>   -25.2697    20.2432     4.0000 </r>
       <r>   -25.1713     0.0000     4.0000 </r>
       <r>   -25.0728     0.0000     4.0000 </r>
       <r>   -24.9744     0.0000     4.0000 </r>
       <r>   -24.8759     0.0000     4.0000 </r>
       <r>   -24.7775     0.0000     4.0000 </r>
       <r>   -24.6790     0.0000     4.0000 </r>
       <r>   -24.5806     0.0000     4.0000 </r>
       <r>   -24.4821     0.0000     4.0000 </r>
       <r>   -24.3837    60.9436    10.0000 </r>
       <r>   -24.2852     0.0000    10.0000 </r>
       <r>   -24.1868     0.0000    10.0000 </r>
       <r>   -24.0883     0.0000    10.0000 </r>
       <r>   -23.9899     0.0000    10.0000 </r>
       <r>   -23.8914     0.0000    10.0000 </r>
       <r>   -23.7930     0.0000    10.0000 </r>
       <r>   -23.6945     0.0000    10.0000 </r>
       <r>   -23.5961    40.1603    13.9538 </r>
       <r>   -23.4976     0.0796    14.0078 </r>
       <r>   -23.3991    29.6433    17.8192 </r>
       <r>   -23.3007     4.0486    20.0000 </r>
       <r>   -23.2022    20.3145    22.0000 </r>
       <r>   -23.1038     0.0000    22.0000 </r>
       <r>   -23.0053     0.0000    22.0000 </r>
       <r>   -22.9069     0.0000    22.0000 </r>
       <r>   -22.8084     0.0000    22.0000 </r>
       <r>   -22.7100     0.0000    22.0000 </r>
       <r>   -22.6115     0.0000    22.0000 </r>
       <r>   -22.5131     0.0753    22.0074 </r>
       <r>   -22.4146    53.7484    27.2990 </r>
       <r>   -22.3162     3.0482    28.0004 </r>
       <r>   -22.2177    40.6249    32.0000 </r>
       <r>   -22.1193    24.2363    34.3861 </r>
       <r>   -22.0208     0.0000    36.0000 </r>
       <r>   -21.9224     0.0000    36.0000 </r>
       <r>   -21.8239     0.0000    36.0000 </r>
       <r>   -21.7255     0.0000    36.0000 </r>
       <r>   -21.6270     0.0000    36.0000 </r>
       <r>   -21.5286     0.0000    36.0000 </r>
       <r>   -21.4301     0.0000    36.0000 </r>
       <r>   -21.3317     0.0000    36.0000 </r>
       <r>   -21.2332     0.0000    36.0000 </r>
       <r>   -21.1348     0.0000    36.0000 </r>
       <r>   -21.0363     0.0000    36.0000 </r>
       <r>   -20.9379     0.0000    36.0000 </r>
       <r>   -20.8394     0.0000    36.0000 </r>
       <r>   -20.7410    53.4972    41.2669 </r>
       <r>   -20.6425     0.0000    42.0000 </r>
       <r>   -20.5441     0.0000    42.0000 </r>
       <r>   -20.4456     0.0000    42.0000 </r>
       <r>   -20.3471     0.0000    42.0000 </r>
       <r>   -20.2487     0.0000    42.0000 </r>
       <r>   -20.1502     0.0000    42.0000 </r>
       <r>   -20.0518     0.0000    42.0000 </r>
       <r>   -19.9533     0.0000    42.0000 </r>
       <r>   -19.8549     0.0000    42.0000 </r>
       <r>   -19.7564     0.0000    42.0000 </r>
       <r>   -19.6580     0.0000    42.0000 </r>
       <r>   -19.5595     0.0000    42.0000 </r>
       <r>   -19.4611     0.0000    42.0000 </r>
       <r>   -19.3626     0.0000    42.0000 </r>
       <r>   -19.2642     0.0000    42.0000 </r>
       <r>   -19.1657     0.0000    42.0000 </r>
       <r>   -19.0673     0.0000    42.0000 </r>
       <r>   -18.9688     0.0000    42.0000 </r>
       <r>   -18.8704    50.6388    46.9855 </r>
       <r>   -18.7719    17.6865    49.7413 </r>
       <r>   -18.6735    21.9720    53.0969 </r>
       <r>   -18.5750     7.1096    54.0000 </r>
       <r>   -18.4766     0.0000    54.0000 </r>
       <r>   -18.3781     0.0000    54.0000 </r>
       <r>   -18.2797     0.0000    54.0000 </r>
       <r>   -18.1812     0.0000    54.0000 </r>
       <r>   -18.0828     0.0000    54.0000 </r>
       <r>   -17.9843     0.0000    54.0000 </r>
       <r>   -17.8859    25.6940    56.5296 </r>
       <r>   -17.7874     3.1229    56.9408 </r>
       <r>   -17.6890     8.8802    57.9076 </r>
       <r>   -17.5905     1.6230    58.1598 </r>
       <r>   -17.4920     6.8891    59.0116 </r>
       <r>   -17.3936     2.1449    59.2778 </r>
       <r>   -17.2951     1.7158    59.5023 </r>
       <r>   -17.1967     1.5594    59.7202 </r>
       <r>   -17.0982     2.5412    60.0168 </r>
       <r>   -16.9998     2.0834    62.2052 </r>
       <r>   -16.9013     1.9488    62.4253 </r>
       <r>   -16.8029     2.1238    62.6425 </r>
       <r>   -16.7044     2.0409    62.9009 </r>
       <r>   -16.6060     7.3296    63.6883 </r>
       <r>   -16.5075     1.7683    64.0743 </r>
       <r>   -16.4091    12.9089    65.6044 </r>
       <r>   -16.3106     0.0898    68.0088 </r>
       <r>   -16.2122    25.5699    71.0848 </r>
       <r>   -16.1137     6.4321    72.0000 </r>
       <r>   -16.0153    40.6291    76.0000 </r>
       <r>   -15.9168     0.0000    76.0000 </r>
       <r>   -15.8184     0.0426    76.0042 </r>
       <r>   -15.7199    11.0219    77.3856 </r>
       <r>   -15.6215     4.8676    77.9792 </r>
       <r>   -15.5230     0.0000    78.0000 </r>
       <r>   -15.4246     0.0000    78.0000 </r>
       <r>   -15.3261     0.0000    78.0000 </r>
       <r>   -15.2277    23.3086    80.2948 </r>
       <r>   -15.1292     2.6115    80.6238 </r>
       <r>   -15.0308     2.5310    80.9159 </r>
       <r>   -14.9323     7.6244    81.7173 </r>
       <r>   -14.8339     0.6742    82.0000 </r>
       <r>   -14.7354     8.7495    82.8614 </r>
       <r>   -14.6369     2.8894    83.2845 </r>
       <r>   -14.5385     3.1289    83.6747 </r>
       <r>   -14.4400     2.0310    84.0000 </r>
       <r>   -14.3416     0.0000    84.0000 </r>
       <r>   -14.2431     0.0000    84.0000 </r>
       <r>   -14.1447    16.1320    85.5882 </r>
       <r>   -14.0462     4.6966    86.8291 </r>
       <r>   -13.9478    10.8453    88.0012 </r>
       <r>   -13.8493    19.2921    90.0000 </r>
       <r>   -13.7509     0.0000    90.0000 </r>
       <r>   -13.6524     0.0002    90.0000 </r>
       <r>   -13.5540    20.7449    92.0424 </r>
       <r>   -13.4555    18.9550    96.0000 </r>
       <r>   -13.3571     0.0000    96.0000 </r>
       <r>   -13.2586     0.0000    96.0000 </r>
       <r>   -13.1602    20.3145    98.0000 </r>
       <r>   -13.0617     0.0131    98.0013 </r>
       <r>   -12.9633    47.1092   102.6393 </r>
       <r>   -12.8648    27.0804   105.8662 </r>
       <r>   -12.7664     6.7674   108.0000 </r>
       <r>   -12.6679    18.5334   109.8246 </r>
       <r>   -12.5695     0.0000   110.0000 </r>
       <r>   -12.4710     0.0000   110.0000 </r>
       <r>   -12.3726    27.1533   112.6733 </r>
       <r>   -12.2741    12.1869   114.0000 </r>
       <r>   -12.1757     0.0000   114.0000 </r>
       <r>   -12.0772     0.0000   114.0000 </r>
       <r>   -11.9788    40.6150   117.9986 </r>
       <r>   -11.8803    14.4367   119.4213 </r>
       <r>   -11.7819     0.0000   120.0000 </r>
       <r>   -11.6834     0.0003   120.0000 </r>
       <r>   -11.5849    20.3143   122.0000 </r>
       <r>   -11.4865    39.3595   125.8750 </r>
       <r>   -11.3880     9.8045   128.0012 </r>
       <r>   -11.2896    20.3022   130.0000 </r>
       <r>   -11.1911    19.6874   131.9383 </r>
       <r>   -11.0927     0.0000   132.0000 </r>
       <r>   -10.9942    20.3148   134.0000 </r>
       <r>   -10.8958    28.2545   136.7817 </r>
       <r>   -10.7973    48.1821   141.9771 </r>
       <r>   -10.6989    19.2337   144.8940 </r>
       <r>   -10.6004     4.3241   145.4924 </r>
       <r>   -10.5020     4.4003   146.0000 </r>
       <r>   -10.4035    24.9772   148.4590 </r>
       <r>   -10.3051    20.6430   150.5991 </r>
       <r>   -10.2066     7.4224   154.0001 </r>
       <r>   -10.1082    20.3138   156.0000 </r>
       <r>   -10.0097    10.8770   157.0709 </r>
       <r>    -9.9113    26.0586   160.0000 </r>
       <r>    -9.8128     0.0000   160.0000 </r>
       <r>    -9.7144    60.1725   165.9241 </r>
       <r>    -9.6159     0.0000   166.0000 </r>
       <r>    -9.5175     0.0000   166.0000 </r>
       <r>    -9.4190    27.2075   168.6786 </r>
       <r>    -9.3206    13.1042   170.1570 </r>
       <r>    -9.2221     9.5370   171.4059 </r>
       <r>    -9.1237    12.5162   172.7324 </r>
       <r>    -9.0252    36.9023   178.0000 </r>
       <r>    -8.9268     0.0000   178.0000 </r>
       <r>    -8.8283     0.0000   178.0000 </r>
       <r>    -8.7298    19.0167   179.8722 </r>
       <r>    -8.6314    29.6776   183.2555 </r>
       <r>    -8.5329    50.4127   190.0000 </r>
       <r>    -8.4345    19.2978   191.8999 </r>
       <r>    -8.3360    39.6041   196.0000 </r>
       <r>    -8.2376     0.0000   196.0000 </r>
       <r>    -8.1391     0.0000   196.0000 </r>
       <r>    -8.0407     0.0000   196.0000 </r>
       <r>    -7.9422     7.4656   196.7350 </r>
       <r>    -7.8438    15.0591   198.4828 </r>
       <r>    -7.7453     4.7252   199.4319 </r>
       <r>    -7.6469    18.7804   201.3491 </r>
       <r>    -7.5484     2.5564   202.2517 </r>
       <r>    -7.4500     3.5231   202.6803 </r>
       <r>    -7.3515     8.1736   203.5714 </r>
       <r>    -7.2531     8.2040   204.6413 </r>
       <r>    -7.1546    16.5832   206.6660 </r>
       <r>    -7.0562     0.0000   208.0000 </r>
       <r>    -6.9577    18.6999   209.8410 </r>
       <r>    -6.8593     0.0000   214.0000 </r>
       <r>    -6.7608     0.0000   214.0000 </r>
       <r>    -6.6624     0.0000   214.0000 </r>
       <r>    -6.5639    29.9909   216.9527 </r>
       <r>    -6.4655    36.3654   223.5802 </r>
       <r>    -6.3670     0.0000   226.0000 </r>
       <r>    -6.2686     0.0000   226.0000 </r>
       <r>    -6.1701     0.0003   226.0000 </r>
       <r>    -6.0717    60.9433   232.0000 </r>
       <r>    -5.9732    22.1494   234.1806 </r>
       <r>    -5.8748     0.0000   236.0000 </r>
       <r>    -5.7763    40.6291   240.0000 </r>
       <r>    -5.6778     0.0000   240.0000 </r>
       <r>    -5.5794     0.0000   240.0000 </r>
       <r>    -5.4809    60.9307   245.9987 </r>
       <r>    -5.3825     0.0000   246.0000 </r>
       <r>    -5.2840     0.0000   246.0000 </r>
       <r>    -5.1856     0.0000   246.0000 </r>
       <r>    -5.0871     0.0000   246.0000 </r>
       <r>    -4.9887     0.0000   246.0000 </r>
       <r>    -4.8902    60.3102   251.9376 </r>
       <r>    -4.7918     0.0000   252.0000 </r>
       <r>    -4.6933     0.0000   252.0000 </r>
       <r>    -4.5949     0.0000   252.0000 </r>
       <r>    -4.4964     0.0000   252.0000 </r>
       <r>    -4.3980     0.0000   252.0000 </r>
       <r>    -4.2995     0.0000   252.0000 </r>
       <r>    -4.2011     0.0000   252.0000 </r>
       <r>    -4.1026     0.0000   252.0000 </r>
       <r>    -4.0042     0.0000   252.0000 </r>
       <r>    -3.9057     0.0000   252.0000 </r>
       <r>    -3.8073     0.0000   252.0000 </r>
       <r>    -3.7088     0.0000   252.0000 </r>
       <r>    -3.6104     0.0000   252.0000 </r>
       <r>    -3.5119     0.0000   252.0000 </r>
       <r>    -3.4135    28.5485   254.8106 </r>
       <r>    -3.3150    10.8329   255.9999 </r>
       <r>    -3.2166     9.8401   256.9688 </r>
       <r>    -3.1181     3.0320   257.3652 </r>
       <r>    -3.0197     2.5705   257.6864 </r>
       <r>    -2.9212    17.7808   259.4839 </r>
       <r>    -2.8227     2.5979   260.3891 </r>
       <r>    -2.7243     3.6813   260.7959 </r>
       <r>    -2.6258    11.5092   262.0000 </r>
       <r>    -2.5274    40.4916   265.9865 </r>
       <r>    -2.4289     0.0000   266.0000 </r>
       <r>    -2.3305     0.0000   266.0000 </r>
       <r>    -2.2320     0.0000   266.0000 </r>
       <r>    -2.1336     5.0506   266.4972 </r>
       <r>    -2.0351    12.9877   267.9787 </r>
       <r>    -1.9367     3.8362   268.3777 </r>
       <r>    -1.8382     5.8368   269.4416 </r>
       <r>    -1.7398     4.4000   270.0000 </r>
       <r>    -1.6413     0.0000   270.0000 </r>
       <r>    -1.5429    52.3673   275.1557 </r>
       <r>    -1.4444     0.0000   276.0000 </r>
       <r>    -1.3460     0.0000   276.0000 </r>
       <r>    -1.2475     0.0000   276.0000 </r>
       <r>    -1.1491     0.0000   276.0000 </r>
       <r>    -1.0506     0.0000   276.0000 </r>
       <r>    -0.9522     0.0000   276.0000 </r>
       <r>    -0.8537     0.0000   276.0000 </r>
       <r>    -0.7553     0.0000   276.0000 </r>
       <r>    -0.6568     3.0598   276.3012 </r>
       <r>    -0.5584     4.8423   278.7435 </r>
       <r>    -0.4599     7.6962   279.5579 </r>
       <r>    -0.3615     5.6063   280.2521 </r>
       <r>    -0.2630     7.3080   281.1196 </r>
       <r>    -0.1646     2.9755   281.4929 </r>
       <r>    -0.0661    28.5324   284.7427 </r>
       <r>     0.0324    15.3516   287.5114 </r>
       <r>     0.1308    24.6372   290.5258 </r>
       <r>     0.2293    24.2000   293.5161 </r>
       <r>     0.3277    33.0605   297.8890 </r>
       <r>     0.4262    20.2786   299.9967 </r>
       <r>     0.5246    52.0231   305.1224 </r>
       <r>     0.6231    18.8447   307.6225 </r>
       <r>     0.7215    51.9818   313.9514 </r>
       <r>     0.8200    58.0253   320.4466 </r>
       <r>     0.9184    41.3910   325.6755 </r>
       <r>     1.0169    80.3044   335.2403 </r>
       <r>     1.1153    42.0968   340.2120 </r>
       <r>     1.2138    41.2079   345.3241 </r>
       <r>     1.3122    53.3185   351.1500 </r>
       <r>     1.4107     4.7367   352.0000 </r>
       <r>     1.5091     0.0000   352.0000 </r>
       <r>     1.6076     0.0000   352.0000 </r>
       <r>     1.7060     0.0000   352.0000 </r>
       <r>     1.8045     0.0000   352.0000 </r>
       <r>     1.9029     0.0000   352.0000 </r>
       <r>     2.0014     0.0000   352.0000 </r>
       <r>     2.0998     0.0000   352.0000 </r>
       <r>     2.1983     0.0000   352.0000 </r>
       <r>     2.2967     0.0000   352.0000 </r>
       <r>     2.3952     0.0000   352.0000 </r>
       <r>     2.4936     0.0000   352.0000 </r>
       <r>     2.5921     0.0000   352.0000 </r>
       <r>     2.6905     0.0000   352.0000 </r>
      </set>
     </set>
    </array>
   </total>
  </dos>
 </calculation>
 <structure name="finalpos" >
  <crystal>
   <varray name="basis" >
    <v>      22.02416457      -0.00000008       0.00000000 </v>
    <v>     -11.01208222      19.07348605       0.00000000 </v>
    <v>       0.00000000       0.00000000      20.00000000 </v>
   </varray>
   <i name="volume">   8401.55189976 </i>
   <varray name="rec_basis" >
    <v>       0.04540467       0.02621440       0.00000000 </v>
    <v>       0.00000000       0.05242880       0.00000000 </v>
    <v>       0.00000000       0.00000000       0.05000000 </v>
   </varray>
  </crystal>
  <varray name="positions" >
   <v>       0.35762852       0.52761440       0.42767160 </v>
   <v>       0.47238560       0.83001412       0.42767160 </v>
   <v>       0.16998588       0.64237148       0.42767160 </v>
   <v>       0.51010621       0.18334916       0.49154616 </v>
   <v>       0.81665084       0.32675705       0.49154616 </v>
   <v>       0.89751960       0.27107738       0.35163529 </v>
   <v>       0.02853861       0.31882400       0.34461552 </v>
   <v>       0.29028539       0.97146139       0.34461552 </v>
   <v>       0.68117600       0.70971461       0.34461552 </v>
   <v>       0.08310174       0.59992449       0.51338566 </v>
   <v>       0.95449739       0.55115618       0.52337676 </v>
   <v>       0.51682275       0.91689826       0.51338566 </v>
   <v>       0.59665879       0.04550261       0.52337676 </v>
   <v>       0.40007551       0.48317725       0.51338566 </v>
   <v>       0.37355778       0.10248040       0.35163529 </v>
   <v>       0.67324295       0.48989379       0.49154616 </v>
   <v>       0.72892262       0.62644222       0.35163529 </v>
   <v>       0.44884382       0.40334121       0.52337676 </v>
   <v>       0.37114016       0.73505955       0.43813059 </v>
   <v>       0.36391939       0.62885984       0.43813059 </v>
   <v>       0.26494045       0.63608061       0.43813059 </v>
   <v>       0.18801019       0.60469512       0.43811018 </v>
   <v>       0.41668493       0.81198981       0.43811018 </v>
   <v>       0.39530488       0.58331507       0.43811018 </v>
   <v>       0.61926058       0.26674392       0.48654652 </v>
   <v>       0.73325608       0.35251666       0.48654652 </v>
   <v>       0.80771903       0.37124360       0.48579876 </v>
   <v>       0.56352458       0.19228097       0.48579876 </v>
   <v>       0.07506917       0.51392106       0.45563275 </v>
   <v>       0.02733572       0.44601480       0.42828334 </v>
   <v>       0.95295186       0.41731742       0.43542853 </v>
   <v>       0.93435804       0.32109160       0.37506277 </v>
   <v>       0.00763234       0.34836473       0.37027865 </v>
   <v>       0.43885189       0.92493083       0.45563275 </v>
   <v>       0.41867909       0.97266428       0.42828334 </v>
   <v>       0.46436555       0.04704814       0.43542853 </v>
   <v>       0.38673356       0.06564196       0.37506277 </v>
   <v>       0.34073240       0.99236766       0.37027865 </v>
   <v>       0.48607894       0.56114811       0.45563275 </v>
   <v>       0.55398520       0.58132091       0.42828334 </v>
   <v>       0.65163527       0.65926760       0.37027865 </v>
   <v>       0.92643118       0.45617632       0.47134041 </v>
   <v>       0.97494262       0.52178163       0.49705712 </v>
   <v>       0.04727602       0.54960779       0.49028451 </v>
   <v>       0.52974514       0.07356882       0.47134041 </v>
   <v>       0.54683901       0.02505738       0.49705712 </v>
   <v>       0.50233177       0.95272398       0.49028451 </v>
   <v>       0.45039221       0.49766823       0.49028451 </v>
   <v>       0.64748334       0.38073942       0.48654652 </v>
   <v>       0.62875640       0.43647542       0.48579876 </v>
   <v>       0.58268258       0.53563445       0.43542853 </v>
   <v>       0.67890840       0.61326644       0.37506277 </v>
   <v>       0.54382368       0.47025486       0.47134041 </v>
   <v>       0.47821837       0.45316099       0.49705712 </v>
   <v>       0.40562568       0.69908241       0.43790064 </v>
   <v>       0.29345674       0.59437432       0.43790064 </v>
   <v>       0.30091759       0.70654326       0.43790064 </v>
   <v>       0.59629918       0.31290013       0.48670969 </v>
   <v>       0.71660095       0.40370082       0.48670969 </v>
   <v>       0.68709987       0.28339905       0.48670969 </v>
   <v>       0.90748436       0.35486171       0.40681898 </v>
   <v>       0.05347194       0.41016421       0.39515793 </v>
   <v>       0.14644482       0.53942897       0.44990987 </v>
   <v>       0.44737734       0.09251564       0.40681898 </v>
   <v>       0.35669227       0.94652806       0.39515793 </v>
   <v>       0.39298414       0.85355518       0.44990987 </v>
   <v>       0.58983579       0.64330773       0.39515793 </v>
   <v>       0.46057103       0.60701586       0.44990987 </v>
   <v>       0.85631992       0.43530390       0.47856380 </v>
   <v>       0.57898398       0.14368008       0.47856380 </v>
   <v>       0.64513829       0.55262266       0.40681898 </v>
   <v>       0.56469610       0.42101602       0.47856380 </v>
  </varray>
 </structure>
</modeling>
