<?xml version="1.0" encoding="ISO-8859-1"?>
<modeling>
 <generator>
  <i name="program" type="string">vasp </i>
  <i name="version" type="string">5.4.4.18Apr17-6-g9f103f2a35  </i>
  <i name="subversion" type="string">(build Jun 07 2020 16:50:00) complex            parallel </i>
  <i name="platform" type="string">LinuxIFC </i>
  <i name="date" type="string">2023 03 06 </i>
  <i name="time" type="string">21:41:02 </i>
 </generator>
 <incar>
  <i type="string" name="SYSTEM">Simulation for cell shape cell volume r</i>
  <i type="int" name="ISTART">     1</i>
  <i type="string" name="PREC">high</i>
  <i type="string" name="ALGO">48</i>
  <i type="int" name="ICHARG">    11</i>
  <i type="int" name="NELM">   200</i>
  <i type="int" name="IBRION">    -1</i>
  <i name="EDIFF">      0.00001000</i>
  <i name="EDIFFG">     -0.01000000</i>
  <i type="int" name="NSW">     0</i>
  <i type="int" name="ISIF">     2</i>
  <i name="ENCUT">    500.00000000</i>
  <i name="POTIM">      0.30000000</i>
  <i type="string" name="LREAL">A</i>
  <i type="int" name="ISMEAR">     0</i>
  <i name="SIGMA">      0.01000000</i>
  <i type="int" name="NWRITE">     0</i>
  <i type="logical" name="LWAVE"> F  </i>
  <i type="logical" name="LCHARG"> F  </i>
  <v type="int" name="KPOINT_BSE">    -1     0     0     0</v>
  <i type="int" name="NELM">   200</i>
  <i type="string" name="GGA">PE</i>
 </incar>
 <structure name="primitive_cell" >
  <crystal>
   <varray name="basis" >
    <v>      22.30221584      -0.01091041       0.00000000 </v>
    <v>     -11.16060956      19.27705453       0.00000000 </v>
    <v>       0.00000000       0.00000000      20.00000000 </v>
   </varray>
   <i name="volume">   8595.98527906 </i>
   <varray name="rec_basis" >
    <v>       0.04485130       0.02596703       0.00000000 </v>
    <v>       0.00002538       0.05188984       0.00000000 </v>
    <v>       0.00000000       0.00000000       0.05000000 </v>
   </varray>
  </crystal>
  <varray name="positions" >
   <v>       0.13288409      -0.32007599      -0.45752484 </v>
   <v>       0.07972144      -0.34134803      -0.47580800 </v>
   <v>       0.05144169      -0.33003152      -0.43756021 </v>
   <v>       0.08175148      -0.31186670       0.47912082 </v>
   <v>       0.04496981      -0.41847991      -0.48928235 </v>
   <v>       0.18209080      -0.35772416       0.47143256 </v>
   <v>       0.16124373      -0.40579655      -0.49847731 </v>
   <v>       0.08520507      -0.45076945      -0.49815368 </v>
   <v>       0.26964610      -0.27794878      -0.46329457 </v>
   <v>       0.20217716      -0.42041402      -0.46637126 </v>
   <v>      -0.02781794      -0.45825721      -0.49073058 </v>
   <v>       0.30251802      -0.30113745      -0.46668123 </v>
   <v>      -0.04208971      -0.37087811       0.48944634 </v>
   <v>       0.27390677      -0.37345357      -0.46762735 </v>
   <v>      -0.06920543      -0.42173204      -0.48587307 </v>
   <v>       0.05351034       0.47674008       0.49186277 </v>
   <v>      -0.07802395      -0.41313606      -0.43342305 </v>
   <v>      -0.05966994       0.46880776      -0.49820645 </v>
   <v>      -0.01923037       0.43649088       0.49352386 </v>
   <v>       0.37468681      -0.25703691      -0.46747336 </v>
   <v>       0.35344206      -0.13142784       0.45978886 </v>
   <v>       0.33693547      -0.08618414      -0.47767163 </v>
   <v>       0.14754613       0.47900944       0.45992495 </v>
   <v>      -0.12059662      -0.45233625       0.49168657 </v>
   <v>       0.09536634       0.44194768       0.47749424 </v>
   <v>       0.39958789      -0.18525791      -0.46617290 </v>
   <v>       0.31787318      -0.40156989      -0.46675687 </v>
   <v>       0.36820708      -0.07931068       0.47731784 </v>
   <v>       0.10191644       0.41746018      -0.47737757 </v>
   <v>       0.29466655      -0.45774422      -0.46342249 </v>
   <v>       0.35297645      -0.05401644       0.43918058 </v>
   <v>      -0.13546384       0.42360777      -0.49935627 </v>
   <v>       0.06979947       0.40125189       0.43947372 </v>
   <v>       0.41832299      -0.28555174      -0.46654583 </v>
   <v>       0.39011568      -0.35778179      -0.46757518 </v>
   <v>       0.45515489      -0.14405642      -0.49826228 </v>
   <v>      -0.05353137       0.35831914       0.48834158 </v>
   <v>      -0.17736354       0.43341024      -0.46304733 </v>
   <v>      -0.02105600       0.33960592      -0.48919444 </v>
   <v>       0.44484121      -0.03681957       0.49191738 </v>
   <v>      -0.15596363       0.37891468       0.46603413 </v>
   <v>      -0.10357076       0.33181148      -0.48579660 </v>
   <v>      -0.06265789       0.34051097       0.43592299 </v>
   <v>       0.48247389      -0.16468207       0.47165597 </v>
   <v>       0.47442111      -0.25252631      -0.46303507 </v>
   <v>       0.48597155      -0.06798089      -0.49794624 </v>
   <v>       0.38130004       0.03651923      -0.48998978 </v>
   <v>       0.43693627      -0.38258735      -0.46642819 </v>
   <v>       0.37460832      -0.46531892       0.47101643 </v>
   <v>      -0.24851145       0.38475160      -0.46540333 </v>
   <v>       0.47701177       0.03596102       0.49358743 </v>
   <v>      -0.27474297       0.46556856      -0.46114802 </v>
   <v>       0.43280286       0.06972034       0.48830766 </v>
   <v>       0.42250846      -0.43805438      -0.49874520 </v>
   <v>       0.42481354       0.07952960       0.43590563 </v>
   <v>      -0.29514539       0.40979299      -0.46463778 </v>
   <v>      -0.44149762      -0.02717502      -0.48895001 </v>
   <v>      -0.43050048      -0.11482153      -0.45759665 </v>
   <v>       0.33720925       0.44746115      -0.45811542 </v>
   <v>      -0.23863814       0.29259708      -0.46122877 </v>
   <v>      -0.27393115       0.31296871      -0.46471371 </v>
   <v>       0.45573662       0.11941454      -0.48514762 </v>
   <v>      -0.31476684      -0.43800050      -0.48493701 </v>
   <v>      -0.39874185      -0.06133142      -0.47532314 </v>
   <v>      -0.45021729       0.07698500      -0.49803652 </v>
   <v>      -0.46294181      -0.33606376       0.45926615 </v>
   <v>      -0.40879658       0.04567118      -0.49040703 </v>
   <v>       0.35880611       0.41571173      -0.47591432 </v>
   <v>       0.32947892       0.38759704       0.47917795 </v>
   <v>      -0.32347575      -0.40801584       0.43553202 </v>
   <v>       0.46769332      -0.46878949      -0.49847024 </v>
   <v>      -0.37059138      -0.06248366       0.47981568 </v>
   <v>      -0.36123619       0.46177510       0.46594810 </v>
   <v>      -0.32290655      -0.36353641      -0.49107920 </v>
   <v>      -0.34136732      -0.41536395       0.48789185 </v>
   <v>      -0.36686358       0.36332064      -0.46534983 </v>
   <v>      -0.35963014      -0.03304775      -0.43660569 </v>
   <v>      -0.34567780       0.26618188      -0.46542618 </v>
   <v>       0.34785505       0.37649785      -0.43726998 </v>
   <v>       0.43579930       0.45860592      -0.48947324 </v>
   <v>      -0.41997661       0.15278558      -0.49922471 </v>
   <v>      -0.42565317      -0.35076905       0.47685456 </v>
   <v>      -0.44449876       0.17295859       0.46630545 </v>
   <v>      -0.40125313      -0.31945626      -0.47811120 </v>
   <v>      -0.40586926       0.43738046      -0.49943336 </v>
   <v>      -0.39198843       0.29150094      -0.46466461 </v>
   <v>      -0.45994112      -0.42750228       0.49142677 </v>
   <v>      -0.41548292       0.38573709      -0.46301790 </v>
   <v>      -0.33086156       0.08769693      -0.48535476 </v>
   <v>      -0.36815220       0.19502232      -0.46309502 </v>
   <v>      -0.30681130       0.06074635       0.49045569 </v>
   <v>      -0.38506208      -0.33541030       0.43875977 </v>
   <v>      -0.31360988       0.09704552      -0.43285729 </v>
   <v>      -0.41942270      -0.45961615       0.49316196 </v>
   <v>      -0.31023566       0.13893321       0.49181027 </v>
   <v>      -0.45134782       0.46754255      -0.49838432 </v>
   <v>      -0.44771259       0.25607985      -0.46116696 </v>
   <v>       0.47585461       0.42595912      -0.49083153 </v>
   <v>       0.38895499       0.32378540       0.48956182 </v>
   <v>       0.43975595       0.34792740      -0.48577260 </v>
   <v>       0.47051875       0.32734169       0.49188947 </v>
   <v>       0.43125116       0.33061989      -0.43328174 </v>
  </varray>
 </structure>
 <varray name="primitive_index" >
  <v type="int" >        1 </v>
  <v type="int" >       51 </v>
  <v type="int" >        3 </v>
  <v type="int" >        2 </v>
  <v type="int" >       50 </v>
  <v type="int" >        4 </v>
  <v type="int" >       52 </v>
  <v type="int" >       49 </v>
  <v type="int" >       10 </v>
  <v type="int" >       97 </v>
  <v type="int" >       80 </v>
  <v type="int" >       55 </v>
  <v type="int" >       33 </v>
  <v type="int" >       56 </v>
  <v type="int" >       81 </v>
  <v type="int" >       53 </v>
  <v type="int" >       35 </v>
  <v type="int" >       93 </v>
  <v type="int" >       94 </v>
  <v type="int" >       58 </v>
  <v type="int" >       17 </v>
  <v type="int" >       18 </v>
  <v type="int" >        5 </v>
  <v type="int" >       34 </v>
  <v type="int" >       54 </v>
  <v type="int" >       98 </v>
  <v type="int" >       57 </v>
  <v type="int" >       61 </v>
  <v type="int" >        6 </v>
  <v type="int" >        9 </v>
  <v type="int" >       19 </v>
  <v type="int" >       96 </v>
  <v type="int" >        7 </v>
  <v type="int" >       62 </v>
  <v type="int" >       59 </v>
  <v type="int" >       74 </v>
  <v type="int" >       95 </v>
  <v type="int" >      101 </v>
  <v type="int" >        8 </v>
  <v type="int" >       84 </v>
  <v type="int" >       48 </v>
  <v type="int" >       46 </v>
  <v type="int" >       47 </v>
  <v type="int" >       30 </v>
  <v type="int" >       20 </v>
  <v type="int" >       69 </v>
  <v type="int" >       16 </v>
  <v type="int" >       99 </v>
  <v type="int" >       15 </v>
  <v type="int" >       65 </v>
  <v type="int" >       83 </v>
  <v type="int" >       21 </v>
  <v type="int" >       85 </v>
  <v type="int" >       79 </v>
  <v type="int" >       37 </v>
  <v type="int" >       66 </v>
  <v type="int" >       70 </v>
  <v type="int" >       27 </v>
  <v type="int" >       12 </v>
  <v type="int" >       23 </v>
  <v type="int" >       64 </v>
  <v type="int" >       36 </v>
  <v type="int" >       39 </v>
  <v type="int" >       73 </v>
  <v type="int" >       82 </v>
  <v type="int" >       42 </v>
  <v type="int" >       71 </v>
  <v type="int" >       60 </v>
  <v type="int" >       13 </v>
  <v type="int" >       40 </v>
  <v type="int" >       75 </v>
  <v type="int" >       28 </v>
  <v type="int" >       45 </v>
  <v type="int" >       41 </v>
  <v type="int" >       90 </v>
  <v type="int" >       67 </v>
  <v type="int" >       29 </v>
  <v type="int" >       63 </v>
  <v type="int" >       14 </v>
  <v type="int" >       76 </v>
  <v type="int" >       86 </v>
  <v type="int" >       91 </v>
  <v type="int" >       38 </v>
  <v type="int" >       43 </v>
  <v type="int" >       92 </v>
  <v type="int" >       68 </v>
  <v type="int" >       89 </v>
  <v type="int" >      102 </v>
  <v type="int" >       72 </v>
  <v type="int" >      100 </v>
  <v type="int" >       24 </v>
  <v type="int" >       44 </v>
  <v type="int" >       26 </v>
  <v type="int" >       88 </v>
  <v type="int" >       25 </v>
  <v type="int" >       87 </v>
  <v type="int" >       22 </v>
  <v type="int" >       77 </v>
  <v type="int" >       11 </v>
  <v type="int" >       78 </v>
  <v type="int" >       31 </v>
  <v type="int" >       32 </v>
 </varray>
 <kpoints>
  <generation param="listgenerated">
   <i name="divisions" type="int">      20 </i>
   <v>       0.00000000       0.00000000       0.00000000 </v>
   <v>       0.50000000       0.00000000       0.00000000 </v>
   <v>       0.33333333       0.33333333       0.00000000 </v>
   <v>       0.00000000       0.00000000       0.00000000 </v>
  </generation>
  <varray name="kpointlist" >
   <v>       0.00000000       0.00000000       0.00000000 </v>
   <v>       0.02631579       0.00000000       0.00000000 </v>
   <v>       0.05263158       0.00000000       0.00000000 </v>
   <v>       0.07894737       0.00000000       0.00000000 </v>
   <v>       0.10526316       0.00000000       0.00000000 </v>
   <v>       0.13157895       0.00000000       0.00000000 </v>
   <v>       0.15789474       0.00000000       0.00000000 </v>
   <v>       0.18421053       0.00000000       0.00000000 </v>
   <v>       0.21052632       0.00000000       0.00000000 </v>
   <v>       0.23684211       0.00000000       0.00000000 </v>
   <v>       0.26315789       0.00000000       0.00000000 </v>
   <v>       0.28947368       0.00000000       0.00000000 </v>
   <v>       0.31578947       0.00000000       0.00000000 </v>
   <v>       0.34210526       0.00000000       0.00000000 </v>
   <v>       0.36842105       0.00000000       0.00000000 </v>
   <v>       0.39473684       0.00000000       0.00000000 </v>
   <v>       0.42105263       0.00000000       0.00000000 </v>
   <v>       0.44736842       0.00000000       0.00000000 </v>
   <v>       0.47368421       0.00000000       0.00000000 </v>
   <v>       0.50000000       0.00000000       0.00000000 </v>
   <v>       0.50000000       0.00000000       0.00000000 </v>
   <v>       0.49122807       0.01754386       0.00000000 </v>
   <v>       0.48245614       0.03508772       0.00000000 </v>
   <v>       0.47368421       0.05263158       0.00000000 </v>
   <v>       0.46491228       0.07017544       0.00000000 </v>
   <v>       0.45614035       0.08771930       0.00000000 </v>
   <v>       0.44736842       0.10526316       0.00000000 </v>
   <v>       0.43859649       0.12280702       0.00000000 </v>
   <v>       0.42982456       0.14035088       0.00000000 </v>
   <v>       0.42105263       0.15789474       0.00000000 </v>
   <v>       0.41228070       0.17543860       0.00000000 </v>
   <v>       0.40350877       0.19298246       0.00000000 </v>
   <v>       0.39473684       0.21052632       0.00000000 </v>
   <v>       0.38596491       0.22807018       0.00000000 </v>
   <v>       0.37719298       0.24561404       0.00000000 </v>
   <v>       0.36842105       0.26315789       0.00000000 </v>
   <v>       0.35964912       0.28070175       0.00000000 </v>
   <v>       0.35087719       0.29824561       0.00000000 </v>
   <v>       0.34210526       0.31578947       0.00000000 </v>
   <v>       0.33333333       0.33333333       0.00000000 </v>
   <v>       0.33333333       0.33333333       0.00000000 </v>
   <v>       0.31578947       0.31578947       0.00000000 </v>
   <v>       0.29824561       0.29824561       0.00000000 </v>
   <v>       0.28070175       0.28070175       0.00000000 </v>
   <v>       0.26315789       0.26315789       0.00000000 </v>
   <v>       0.24561404       0.24561404       0.00000000 </v>
   <v>       0.22807018       0.22807018       0.00000000 </v>
   <v>       0.21052632       0.21052632       0.00000000 </v>
   <v>       0.19298246       0.19298246       0.00000000 </v>
   <v>       0.17543860       0.17543860       0.00000000 </v>
   <v>       0.15789474       0.15789474       0.00000000 </v>
   <v>       0.14035088       0.14035088       0.00000000 </v>
   <v>       0.12280702       0.12280702       0.00000000 </v>
   <v>       0.10526316       0.10526316       0.00000000 </v>
   <v>       0.08771930       0.08771930       0.00000000 </v>
   <v>       0.07017544       0.07017544       0.00000000 </v>
   <v>       0.05263158       0.05263158       0.00000000 </v>
   <v>       0.03508772       0.03508772       0.00000000 </v>
   <v>       0.01754386       0.01754386       0.00000000 </v>
   <v>       0.00000000       0.00000000       0.00000000 </v>
  </varray>
  <varray name="weights" >
   <v>       0.01666667 </v>
   <v>       0.01666667 </v>
   <v>       0.01666667 </v>
   <v>       0.01666667 </v>
   <v>       0.01666667 </v>
   <v>       0.01666667 </v>
   <v>       0.01666667 </v>
   <v>       0.01666667 </v>
   <v>       0.01666667 </v>
   <v>       0.01666667 </v>
   <v>       0.01666667 </v>
   <v>       0.01666667 </v>
   <v>       0.01666667 </v>
   <v>       0.01666667 </v>
   <v>       0.01666667 </v>
   <v>       0.01666667 </v>
   <v>       0.01666667 </v>
   <v>       0.01666667 </v>
   <v>       0.01666667 </v>
   <v>       0.01666667 </v>
   <v>       0.01666667 </v>
   <v>       0.01666667 </v>
   <v>       0.01666667 </v>
   <v>       0.01666667 </v>
   <v>       0.01666667 </v>
   <v>       0.01666667 </v>
   <v>       0.01666667 </v>
   <v>       0.01666667 </v>
   <v>       0.01666667 </v>
   <v>       0.01666667 </v>
   <v>       0.01666667 </v>
   <v>       0.01666667 </v>
   <v>       0.01666667 </v>
   <v>       0.01666667 </v>
   <v>       0.01666667 </v>
   <v>       0.01666667 </v>
   <v>       0.01666667 </v>
   <v>       0.01666667 </v>
   <v>       0.01666667 </v>
   <v>       0.01666667 </v>
   <v>       0.01666667 </v>
   <v>       0.01666667 </v>
   <v>       0.01666667 </v>
   <v>       0.01666667 </v>
   <v>       0.01666667 </v>
   <v>       0.01666667 </v>
   <v>       0.01666667 </v>
   <v>       0.01666667 </v>
   <v>       0.01666667 </v>
   <v>       0.01666667 </v>
   <v>       0.01666667 </v>
   <v>       0.01666667 </v>
   <v>       0.01666667 </v>
   <v>       0.01666667 </v>
   <v>       0.01666667 </v>
   <v>       0.01666667 </v>
   <v>       0.01666667 </v>
   <v>       0.01666667 </v>
   <v>       0.01666667 </v>
   <v>       0.01666667 </v>
  </varray>
 </kpoints>
 <parameters>
  <separator name="general" >
   <i type="string" name="SYSTEM">Simulation for cell shape cell volume r</i>
   <i type="logical" name="LCOMPAT"> F  </i>
  </separator>
  <separator name="electronic" >
   <i type="string" name="PREC">high</i>
   <i name="ENMAX">    500.00000000</i>
   <i name="ENAUG">    644.87300000</i>
   <i name="EDIFF">      0.00001000</i>
   <i type="int" name="IALGO">    38</i>
   <i type="int" name="IWAVPR">    10</i>
   <i type="int" name="NBANDS">   192</i>
   <i name="NELECT">    270.00000000</i>
   <i type="int" name="TURBO">     0</i>
   <i type="int" name="IRESTART">     0</i>
   <i type="int" name="NREBOOT">     0</i>
   <i type="int" name="NMIN">     0</i>
   <i name="EREF">      0.00000000</i>
   <separator name="electronic smearing" >
    <i type="int" name="ISMEAR">     0</i>
    <i name="SIGMA">      0.01000000</i>
    <i name="KSPACING">      0.50000000</i>
    <i type="logical" name="KGAMMA"> T  </i>
   </separator>
   <separator name="electronic projectors" >
    <i type="logical" name="LREAL"> T  </i>
    <v name="ROPT">     -0.00040000     -0.00040000     -0.00040000</v>
    <i type="int" name="LMAXPAW">  -100</i>
    <i type="int" name="LMAXMIX">     2</i>
    <i type="logical" name="NLSPLINE"> F  </i>
   </separator>
   <separator name="electronic startup" >
    <i type="int" name="ISTART">     1</i>
    <i type="int" name="ICHARG">    11</i>
    <i type="int" name="INIWAV">     1</i>
   </separator>
   <separator name="electronic spin" >
    <i type="int" name="ISPIN">     1</i>
    <i type="logical" name="LNONCOLLINEAR"> F  </i>
    <v name="MAGMOM">      1.00000000      1.00000000      1.00000000      1.00000000      1.00000000      1.00000000      1.00000000      1.00000000      1.00000000      1.00000000      1.00000000      1.00000000      1.00000000      1.00000000      1.00000000      1.00000000      1.00000000      1.00000000      1.00000000      1.00000000
      1.00000000      1.00000000      1.00000000      1.00000000      1.00000000      1.00000000      1.00000000      1.00000000      1.00000000      1.00000000      1.00000000      1.00000000      1.00000000      1.00000000      1.00000000      1.00000000      1.00000000      1.00000000      1.00000000      1.00000000
      1.00000000      1.00000000      1.00000000      1.00000000      1.00000000      1.00000000      1.00000000      1.00000000      1.00000000      1.00000000      1.00000000      1.00000000      1.00000000      1.00000000      1.00000000      1.00000000      1.00000000      1.00000000      1.00000000      1.00000000
      1.00000000      1.00000000      1.00000000      1.00000000      1.00000000      1.00000000      1.00000000      1.00000000      1.00000000      1.00000000      1.00000000      1.00000000      1.00000000      1.00000000      1.00000000      1.00000000      1.00000000      1.00000000      1.00000000      1.00000000
      1.00000000      1.00000000      1.00000000      1.00000000      1.00000000      1.00000000      1.00000000      1.00000000      1.00000000      1.00000000      1.00000000      1.00000000      1.00000000      1.00000000      1.00000000      1.00000000      1.00000000      1.00000000      1.00000000      1.00000000
      1.00000000      1.00000000</v>
    <i name="NUPDOWN">     -1.00000000</i>
    <i type="logical" name="LSORBIT"> F  </i>
    <v name="SAXIS">      0.00000000      0.00000000      1.00000000</v>
    <i type="logical" name="LSPIRAL"> F  </i>
    <v name="QSPIRAL">      0.00000000      0.00000000      0.00000000</v>
    <i type="logical" name="LZEROZ"> F  </i>
   </separator>
   <separator name="electronic exchange-correlation" >
    <i type="logical" name="LASPH"> F  </i>
    <i type="logical" name="LMETAGGA"> F  </i>
   </separator>
   <separator name="electronic convergence" >
    <i type="int" name="NELM">   200</i>
    <i type="int" name="NELMDL">     0</i>
    <i type="int" name="NELMIN">     2</i>
    <i name="ENINI">    500.00000000</i>
    <separator name="electronic convergence detail" >
     <i type="logical" name="LDIAG"> T  </i>
     <i type="logical" name="LSUBROT"> F  </i>
     <i name="WEIMIN">      0.00000000</i>
     <i name="EBREAK">      0.00000001</i>
     <i name="DEPER">      0.30000000</i>
     <i type="int" name="NRMM">     4</i>
     <i name="TIME">      0.40000000</i>
    </separator>
   </separator>
   <separator name="electronic mixer" >
    <i name="AMIX">      0.40000000</i>
    <i name="BMIX">      1.00000000</i>
    <i name="AMIN">      0.10000000</i>
    <i name="AMIX_MAG">      1.60000000</i>
    <i name="BMIX_MAG">      1.00000000</i>
    <separator name="electronic mixer details" >
     <i type="int" name="IMIX">     4</i>
     <i type="logical" name="MIXFIRST"> F  </i>
     <i type="int" name="MAXMIX">   -45</i>
     <i name="WC">    100.00000000</i>
     <i type="int" name="INIMIX">     1</i>
     <i type="int" name="MIXPRE">     1</i>
     <i type="int" name="MREMOVE">     5</i>
    </separator>
   </separator>
   <separator name="electronic dipolcorrection" >
    <i type="logical" name="LDIPOL"> F  </i>
    <i type="logical" name="LMONO"> F  </i>
    <i type="int" name="IDIPOL">     0</i>
    <i name="EPSILON">      1.00000000</i>
    <v name="DIPOL">   -100.00000000   -100.00000000   -100.00000000</v>
    <i name="EFIELD">      0.00000000</i>
   </separator>
  </separator>
  <separator name="grids" >
   <i type="int" name="NGX">   168</i>
   <i type="int" name="NGY">   162</i>
   <i type="int" name="NGZ">   150</i>
   <i type="int" name="NGXF">   250</i>
   <i type="int" name="NGYF">   250</i>
   <i type="int" name="NGZF">   224</i>
   <i type="logical" name="ADDGRID"> F  </i>
  </separator>
  <separator name="ionic" >
   <i type="int" name="NSW">     0</i>
   <i type="int" name="IBRION">    -1</i>
   <i type="int" name="MDALGO">     0</i>
   <i type="int" name="ISIF">     2</i>
   <i name="PSTRESS">      0.00000000</i>
   <i name="EDIFFG">     -0.01000000</i>
   <i type="int" name="NFREE">     0</i>
   <i name="POTIM">      0.30000000</i>
   <i name="SMASS">     -3.00000000</i>
   <i name="SCALEE">      1.00000000</i>
  </separator>
  <separator name="ionic md" >
   <i name="TEBEG">      0.00010000</i>
   <i name="TEEND">      0.00010000</i>
   <i type="int" name="NBLOCK">     1</i>
   <i type="int" name="KBLOCK">     1</i>
   <i type="int" name="NPACO">   256</i>
   <i name="APACO">     16.00000000</i>
  </separator>
  <separator name="symmetry" >
   <i type="int" name="ISYM">     2</i>
   <i name="SYMPREC">      0.00001000</i>
  </separator>
  <separator name="dos" >
   <i type="int" name="LORBIT">     0</i>
   <v name="RWIGS">     -1.00000000     -1.00000000     -1.00000000</v>
   <i type="int" name="NEDOS">   301</i>
   <i name="EMIN">     10.00000000</i>
   <i name="EMAX">    -10.00000000</i>
   <i name="EFERMI">      0.00000000</i>
  </separator>
  <separator name="writing" >
   <i type="int" name="NWRITE">     0</i>
   <i type="logical" name="LWAVE"> F  </i>
   <i type="logical" name="LDOWNSAMPLE"> F  </i>
   <i type="logical" name="LCHARG"> F  </i>
   <i type="logical" name="LPARD"> F  </i>
   <i type="logical" name="LVTOT"> F  </i>
   <i type="logical" name="LVHAR"> F  </i>
   <i type="logical" name="LELF"> F  </i>
   <i type="logical" name="LOPTICS"> F  </i>
   <v name="STM">      0.00000000      0.00000000      0.00000000      0.00000000      0.00000000      0.00000000      0.00000000</v>
  </separator>
  <separator name="performance" >
   <i type="int" name="NPAR">    16</i>
   <i type="int" name="NSIM">     4</i>
   <i type="int" name="NBLK">    -1</i>
   <i type="logical" name="LPLANE"> T  </i>
   <i type="logical" name="LSCALAPACK"> T  </i>
   <i type="logical" name="LSCAAWARE"> F  </i>
   <i type="logical" name="LSCALU"> F  </i>
   <i type="logical" name="LASYNC"> F  </i>
   <i type="logical" name="LORBITALREAL"> F  </i>
  </separator>
  <separator name="miscellaneous" >
   <i type="int" name="IDIOT">     3</i>
   <i type="int" name="ISPECIAL">     0</i>
   <i type="logical" name="LMUSIC"> F  </i>
   <v name="POMASS">      1.00000000     12.01100000     14.00100000</v>
   <v name="DARWINR">      0.00000000      0.00000000      0.00000000</v>
   <v name="DARWINV">      1.00000000      1.00000000      1.00000000</v>
   <i type="logical" name="LCORR"> T  </i>
  </separator>
  <i type="logical" name="GGA_COMPAT"> T  </i>
  <i type="logical" name="LBERRY"> F  </i>
  <i type="int" name="ICORELEVEL">     0</i>
  <i type="logical" name="LDAU"> F  </i>
  <i type="int" name="I_CONSTRAINED_M">     0</i>
  <separator name="electronic exchange-correlation" >
   <i type="string" name="GGA">PE</i>
   <i type="int" name="VOSKOWN">     0</i>
   <i type="logical" name="LHFCALC"> F  </i>
   <i type="string" name="PRECFOCK"></i>
   <i type="logical" name="LSYMGRAD"> F  </i>
   <i type="logical" name="LHFONE"> F  </i>
   <i type="logical" name="LRHFCALC"> F  </i>
   <i type="logical" name="LTHOMAS"> F  </i>
   <i type="logical" name="LMODELHF"> F  </i>
   <i name="ENCUT4O">     -1.00000000</i>
   <i type="int" name="EXXOEP">     0</i>
   <i type="int" name="FOURORBIT">     0</i>
   <i name="AEXX">      0.00000000</i>
   <i name="HFALPHA">      0.00000000</i>
   <i name="MCALPHA">      0.00000000</i>
   <i name="ALDAX">      1.00000000</i>
   <i name="AGGAX">      1.00000000</i>
   <i name="ALDAC">      1.00000000</i>
   <i name="AGGAC">      1.00000000</i>
   <i type="int" name="NKREDX">     1</i>
   <i type="int" name="NKREDY">     1</i>
   <i type="int" name="NKREDZ">     1</i>
   <i type="logical" name="SHIFTRED"> F  </i>
   <i type="logical" name="ODDONLY"> F  </i>
   <i type="logical" name="EVENONLY"> F  </i>
   <i type="int" name="LMAXFOCK">     0</i>
   <i type="int" name="NMAXFOCKAE">     0</i>
   <i type="logical" name="LFOCKAEDFT"> F  </i>
   <i name="HFSCREEN">      0.00000000</i>
   <i name="HFSCREENC">      0.00000000</i>
   <i type="int" name="NBANDSGWLOW">     0</i>
  </separator>
  <separator name="vdW DFT" >
   <i type="logical" name="LUSE_VDW"> F  </i>
   <i name="Zab_VDW">     -0.84910000</i>
   <i name="PARAM1">      0.12340000</i>
   <i name="PARAM2">      1.00000000</i>
   <i name="PARAM3">      0.00000000</i>
  </separator>
  <separator name="model GW" >
   <i type="int" name="MODEL_GW">     0</i>
   <i name="MODEL_EPS0">     50.56461929</i>
   <i name="MODEL_ALPHA">      1.00000000</i>
  </separator>
  <separator name="linear response parameters" >
   <i type="logical" name="LEPSILON"> F  </i>
   <i type="logical" name="LRPA"> F  </i>
   <i type="logical" name="LNABLA"> F  </i>
   <i type="logical" name="LVEL"> F  </i>
   <i type="int" name="KINTER">     0</i>
   <i name="CSHIFT">      0.10000000</i>
   <i name="OMEGAMAX">     -1.00000000</i>
   <i name="DEG_THRESHOLD">      0.00200000</i>
   <i name="RTIME">     -0.10000000</i>
   <i name="WPLASMAI">      0.00000000</i>
   <v name="DFIELD">      0.00000000      0.00000000      0.00000000</v>
   <v name="WPLASMA">      0.00000000      0.00000000      0.00000000      0.00000000      0.00000000      0.00000000      0.00000000      0.00000000      0.00000000</v>
  </separator>
  <separator name="orbital magnetization" >
   <i type="logical" name="NUCIND"> F  </i>
   <v name="MAGPOS">      0.00000000      0.00000000      0.00000000</v>
   <i type="logical" name="LNICSALL"> T  </i>
   <i type="logical" name="ORBITALMAG"> F  </i>
   <i type="logical" name="LMAGBLOCH"> F  </i>
   <i type="logical" name="LCHIMAG"> F  </i>
   <i type="logical" name="LGAUGE"> T  </i>
   <i type="int" name="MAGATOM">     0</i>
   <v name="MAGDIPOL">      0.00000000      0.00000000      0.00000000</v>
   <v name="AVECCONST">      0.00000000      0.00000000      0.00000000</v>
  </separator>
  <separator name="response functions" >
   <i type="logical" name="LADDER"> F  </i>
   <i type="logical" name="LRPAFORCE"> F  </i>
   <i type="logical" name="LFXC"> F  </i>
   <i type="logical" name="LHARTREE"> T  </i>
   <i type="int" name="IBSE">     0</i>
   <v type="int" name="KPOINT">    -1     0     0     0</v>
   <i type="logical" name="LTCTE"> F  </i>
   <i type="logical" name="LTETE"> F  </i>
   <i type="logical" name="LTRIPLET"> F  </i>
   <i type="logical" name="LFXCEPS"> F  </i>
   <i type="logical" name="LFXHEG"> F  </i>
   <i type="int" name="NATURALO">     2</i>
   <i type="logical" name="L2ORDER"> F  </i>
   <i type="logical" name="LMP2LT"> F  </i>
   <i type="logical" name="LUSEW"> F  </i>
   <i name="ENCUTGW">     -2.00000000</i>
   <i name="ENCUTGWSOFT">     -2.00000000</i>
   <i name="ENCUTLF">     -1.00000000</i>
   <i type="int" name="LMAXMP2">    -1</i>
   <i name="SCISSOR">      0.00000000</i>
   <i type="int" name="NOMEGA">     0</i>
   <i type="int" name="NOMEGAR">     0</i>
   <i type="int" name="NBANDSGW">    -1</i>
   <i type="int" name="NBANDSO">    -1</i>
   <i type="int" name="NBANDSV">    -1</i>
   <i type="int" name="NELM">   200</i>
   <i type="int" name="NELMHF">     1</i>
   <i type="int" name="DIM">     3</i>
   <i type="int" name="ANTIRES">     0</i>
   <i name="OMEGAMAX">    -30.00000000</i>
   <i name="OMEGAMIN">    -30.00000000</i>
   <i name="OMEGATL">   -200.00000000</i>
   <i type="int" name="OMEGAGRID">   140</i>
   <i name="CSHIFT">     -0.10000000</i>
   <i type="logical" name="SELFENERGY"> F  </i>
   <i type="logical" name="LSPECTRAL"> F  </i>
   <i type="logical" name="LSPECTRALGW"> F  </i>
   <i type="logical" name="LSINGLES"> F  </i>
   <i type="logical" name="LFERMIGW"> F  </i>
   <i type="logical" name="ODDONLYGW"> F  </i>
   <i type="logical" name="EVENONLYGW"> F  </i>
   <i type="int" name="NKREDLFX">     1</i>
   <i type="int" name="NKREDLFY">     1</i>
   <i type="int" name="NKREDLFZ">     1</i>
   <i type="int" name="MAXMEM">  2800</i>
   <i type="int" name="TELESCOPE">     0</i>
   <i type="int" name="TAUPAR">     1</i>
   <i type="int" name="OMEGAPAR">    -1</i>
   <i name="LAMBDA">      1.00000000</i>
  </separator>
  <separator name="External order field" >
   <i name="OFIELD_KAPPA">      0.00000000</i>
   <v name="OFIELD_K">      0.00000000      0.00000000      0.00000000</v>
   <i name="OFIELD_Q6_NEAR">      0.00000000</i>
   <i name="OFIELD_Q6_FAR">      0.00000000</i>
   <i name="OFIELD_A">      0.00000000</i>
  </separator>
  <separator name="solvation model" >
   <i type="logical" name="LSOL"> F  </i>
  </separator>
 </parameters>
 <atominfo>
  <atoms>     102 </atoms>
  <types>       3 </types>
  <array name="atoms" >
   <dimension dim="1">ion</dimension>
   <field type="string">element</field>
   <field type="int">atomtype</field>
   <set>
    <rc><c>H </c><c>   1</c></rc>
    <rc><c>H </c><c>   1</c></rc>
    <rc><c>H </c><c>   1</c></rc>
    <rc><c>H </c><c>   1</c></rc>
    <rc><c>H </c><c>   1</c></rc>
    <rc><c>H </c><c>   1</c></rc>
    <rc><c>H </c><c>   1</c></rc>
    <rc><c>H </c><c>   1</c></rc>
    <rc><c>H </c><c>   1</c></rc>
    <rc><c>H </c><c>   1</c></rc>
    <rc><c>H </c><c>   1</c></rc>
    <rc><c>H </c><c>   1</c></rc>
    <rc><c>H </c><c>   1</c></rc>
    <rc><c>H </c><c>   1</c></rc>
    <rc><c>H </c><c>   1</c></rc>
    <rc><c>H </c><c>   1</c></rc>
    <rc><c>H </c><c>   1</c></rc>
    <rc><c>H </c><c>   1</c></rc>
    <rc><c>H </c><c>   1</c></rc>
    <rc><c>H </c><c>   1</c></rc>
    <rc><c>H </c><c>   1</c></rc>
    <rc><c>H </c><c>   1</c></rc>
    <rc><c>H </c><c>   1</c></rc>
    <rc><c>H </c><c>   1</c></rc>
    <rc><c>H </c><c>   1</c></rc>
    <rc><c>H </c><c>   1</c></rc>
    <rc><c>H </c><c>   1</c></rc>
    <rc><c>H </c><c>   1</c></rc>
    <rc><c>H </c><c>   1</c></rc>
    <rc><c>H </c><c>   1</c></rc>
    <rc><c>H </c><c>   1</c></rc>
    <rc><c>H </c><c>   1</c></rc>
    <rc><c>H </c><c>   1</c></rc>
    <rc><c>H </c><c>   1</c></rc>
    <rc><c>H </c><c>   1</c></rc>
    <rc><c>H </c><c>   1</c></rc>
    <rc><c>H </c><c>   1</c></rc>
    <rc><c>H </c><c>   1</c></rc>
    <rc><c>H </c><c>   1</c></rc>
    <rc><c>H </c><c>   1</c></rc>
    <rc><c>H </c><c>   1</c></rc>
    <rc><c>H </c><c>   1</c></rc>
    <rc><c>H </c><c>   1</c></rc>
    <rc><c>H </c><c>   1</c></rc>
    <rc><c>H </c><c>   1</c></rc>
    <rc><c>H </c><c>   1</c></rc>
    <rc><c>H </c><c>   1</c></rc>
    <rc><c>H </c><c>   1</c></rc>
    <rc><c>C </c><c>   2</c></rc>
    <rc><c>C </c><c>   2</c></rc>
    <rc><c>C </c><c>   2</c></rc>
    <rc><c>C </c><c>   2</c></rc>
    <rc><c>C </c><c>   2</c></rc>
    <rc><c>C </c><c>   2</c></rc>
    <rc><c>C </c><c>   2</c></rc>
    <rc><c>C </c><c>   2</c></rc>
    <rc><c>C </c><c>   2</c></rc>
    <rc><c>C </c><c>   2</c></rc>
    <rc><c>C </c><c>   2</c></rc>
    <rc><c>C </c><c>   2</c></rc>
    <rc><c>C </c><c>   2</c></rc>
    <rc><c>C </c><c>   2</c></rc>
    <rc><c>C </c><c>   2</c></rc>
    <rc><c>C </c><c>   2</c></rc>
    <rc><c>C </c><c>   2</c></rc>
    <rc><c>C </c><c>   2</c></rc>
    <rc><c>C </c><c>   2</c></rc>
    <rc><c>C </c><c>   2</c></rc>
    <rc><c>C </c><c>   2</c></rc>
    <rc><c>C </c><c>   2</c></rc>
    <rc><c>C </c><c>   2</c></rc>
    <rc><c>C </c><c>   2</c></rc>
    <rc><c>C </c><c>   2</c></rc>
    <rc><c>C </c><c>   2</c></rc>
    <rc><c>C </c><c>   2</c></rc>
    <rc><c>C </c><c>   2</c></rc>
    <rc><c>C </c><c>   2</c></rc>
    <rc><c>C </c><c>   2</c></rc>
    <rc><c>C </c><c>   2</c></rc>
    <rc><c>C </c><c>   2</c></rc>
    <rc><c>C </c><c>   2</c></rc>
    <rc><c>C </c><c>   2</c></rc>
    <rc><c>C </c><c>   2</c></rc>
    <rc><c>C </c><c>   2</c></rc>
    <rc><c>C </c><c>   2</c></rc>
    <rc><c>C </c><c>   2</c></rc>
    <rc><c>C </c><c>   2</c></rc>
    <rc><c>C </c><c>   2</c></rc>
    <rc><c>C </c><c>   2</c></rc>
    <rc><c>C </c><c>   2</c></rc>
    <rc><c>C </c><c>   2</c></rc>
    <rc><c>C </c><c>   2</c></rc>
    <rc><c>C </c><c>   2</c></rc>
    <rc><c>C </c><c>   2</c></rc>
    <rc><c>C </c><c>   2</c></rc>
    <rc><c>C </c><c>   2</c></rc>
    <rc><c>N </c><c>   3</c></rc>
    <rc><c>N </c><c>   3</c></rc>
    <rc><c>N </c><c>   3</c></rc>
    <rc><c>N </c><c>   3</c></rc>
    <rc><c>N </c><c>   3</c></rc>
    <rc><c>N </c><c>   3</c></rc>
   </set>
  </array>
  <array name="atomtypes" >
   <dimension dim="1">type</dimension>
   <field type="int">atomspertype</field>
   <field type="string">element</field>
   <field>mass</field>
   <field>valence</field>
   <field type="string">pseudopotential</field>
   <set>
    <rc><c>  48</c><c>H </c><c>      1.00000000</c><c>      1.00000000</c><c>  PAW_PBE H 15Jun2001                   </c></rc>
    <rc><c>  48</c><c>C </c><c>     12.01100000</c><c>      4.00000000</c><c>  PAW_PBE C 08Apr2002                   </c></rc>
    <rc><c>   6</c><c>N </c><c>     14.00100000</c><c>      5.00000000</c><c>  PAW_PBE N 08Apr2002                   </c></rc>
   </set>
  </array>
 </atominfo>
 <structure name="initialpos" >
  <crystal>
   <varray name="basis" >
    <v>      22.30221584      -0.01091041       0.00000000 </v>
    <v>     -11.16060956      19.27705453       0.00000000 </v>
    <v>       0.00000000       0.00000000      20.00000000 </v>
   </varray>
   <i name="volume">   8595.98527906 </i>
   <varray name="rec_basis" >
    <v>       0.04485130       0.02596703       0.00000000 </v>
    <v>       0.00002538       0.05188984       0.00000000 </v>
    <v>       0.00000000       0.00000000       0.05000000 </v>
   </varray>
  </crystal>
  <varray name="positions" >
   <v>       0.13288409       0.67992401       0.54247516 </v>
   <v>       0.08175148       0.68813330       0.47912082 </v>
   <v>       0.05144169       0.66996848       0.56243979 </v>
   <v>       0.18209080       0.64227584       0.47143256 </v>
   <v>       0.14754613       0.47900944       0.45992495 </v>
   <v>       0.10191644       0.41746018       0.52262243 </v>
   <v>       0.06979947       0.40125189       0.43947372 </v>
   <v>       0.97894400       0.33960592       0.51080556 </v>
   <v>       0.29466655       0.54225578       0.53657751 </v>
   <v>       0.26964610       0.72205122       0.53670543 </v>
   <v>       0.38895499       0.32378540       0.48956182 </v>
   <v>       0.33720925       0.44746115       0.54188458 </v>
   <v>       0.32947892       0.38759704       0.47917795 </v>
   <v>       0.34785505       0.37649785       0.56273002 </v>
   <v>       0.37460832       0.53468108       0.47101643 </v>
   <v>       0.38130004       0.03651923       0.51001022 </v>
   <v>       0.35344206       0.86857216       0.45978886 </v>
   <v>       0.33693547       0.91381586       0.52232837 </v>
   <v>       0.35297645       0.94598356       0.43918058 </v>
   <v>       0.47442111       0.74747369       0.53696493 </v>
   <v>       0.72525703       0.46556856       0.53885198 </v>
   <v>       0.55228741       0.25607985       0.53883304 </v>
   <v>       0.76136186       0.29259708       0.53877123 </v>
   <v>       0.69318870       0.06074635       0.49045569 </v>
   <v>       0.68976434       0.13893321       0.49181027 </v>
   <v>       0.68639012       0.09704552       0.56714271 </v>
   <v>       0.56949952       0.88517847       0.54240335 </v>
   <v>       0.62940862       0.93751634       0.47981568 </v>
   <v>       0.64036986       0.96695225       0.56339431 </v>
   <v>       0.48247389       0.83531793       0.47165597 </v>
   <v>       0.47051875       0.32734169       0.49188947 </v>
   <v>       0.43125116       0.33061989       0.56671826 </v>
   <v>       0.95791029       0.62912189       0.48944634 </v>
   <v>       0.87940338       0.54766375       0.49168657 </v>
   <v>       0.92197605       0.58686394       0.56657695 </v>
   <v>       0.45573662       0.11941454       0.51485238 </v>
   <v>       0.42481354       0.07952960       0.43590563 </v>
   <v>       0.55550124       0.17295859       0.46630545 </v>
   <v>       0.68523316       0.56199950       0.51506299 </v>
   <v>       0.67652425       0.59198416       0.43553202 </v>
   <v>       0.67709345       0.63646359       0.50892080 </v>
   <v>       0.53705819       0.66393624       0.45926615 </v>
   <v>       0.59874687       0.68054374       0.52188880 </v>
   <v>       0.61493792       0.66458970       0.43875977 </v>
   <v>       0.63876381       0.46177510       0.46594810 </v>
   <v>       0.89642924       0.33181148       0.51420340 </v>
   <v>       0.93734211       0.34051097       0.43592299 </v>
   <v>       0.84403637       0.37891468       0.46603413 </v>
   <v>       0.08520507       0.54923055       0.50184632 </v>
   <v>       0.04496981       0.58152009       0.51071765 </v>
   <v>       0.07972144       0.65865197       0.52419200 </v>
   <v>       0.16124373       0.59420345       0.50152269 </v>
   <v>       0.05351034       0.47674008       0.49186277 </v>
   <v>       0.09536634       0.44194768       0.47749424 </v>
   <v>       0.30251802       0.69886255       0.53331877 </v>
   <v>       0.27390677       0.62654643       0.53237265 </v>
   <v>       0.31787318       0.59843011       0.53324313 </v>
   <v>       0.37468681       0.74296309       0.53252664 </v>
   <v>       0.39011568       0.64221821       0.53242482 </v>
   <v>       0.35880611       0.41571173       0.52408568 </v>
   <v>       0.36820708       0.92068932       0.47731784 </v>
   <v>       0.41832299       0.71444826       0.53345417 </v>
   <v>       0.65432220       0.26618188       0.53457382 </v>
   <v>       0.72606885       0.31296871       0.53528629 </v>
   <v>       0.75148855       0.38475160       0.53459667 </v>
   <v>       0.70485461       0.40979299       0.53536222 </v>
   <v>       0.63313642       0.36332064       0.53465017 </v>
   <v>       0.60801157       0.29150094       0.53533539 </v>
   <v>       0.48597155       0.93201911       0.50205376 </v>
   <v>       0.55850238       0.97282498       0.51104999 </v>
   <v>       0.59120342       0.04567118       0.50959297 </v>
   <v>       0.66913844       0.08769693       0.51464524 </v>
   <v>       0.60125815       0.93866858       0.52467686 </v>
   <v>       0.45515489       0.85594358       0.50173772 </v>
   <v>       0.46769332       0.53121051       0.50152976 </v>
   <v>       0.43579930       0.45860592       0.51052676 </v>
   <v>       0.47585461       0.42595912       0.50916847 </v>
   <v>       0.43975595       0.34792740       0.51422740 </v>
   <v>       0.42250846       0.56194562       0.50125480 </v>
   <v>       0.97218206       0.54174279       0.50926942 </v>
   <v>       0.93079457       0.57826796       0.51412693 </v>
   <v>       0.54978271       0.07698500       0.50196348 </v>
   <v>       0.47701177       0.03596102       0.49358743 </v>
   <v>       0.44484121       0.96318043       0.49191738 </v>
   <v>       0.43280286       0.06972034       0.48830766 </v>
   <v>       0.58002339       0.15278558       0.50077529 </v>
   <v>       0.54865218       0.46754255       0.50161568 </v>
   <v>       0.58057730       0.54038385       0.49316196 </v>
   <v>       0.54005888       0.57249772       0.49142677 </v>
   <v>       0.65863268       0.58463605       0.48789185 </v>
   <v>       0.57434683       0.64923095       0.47685456 </v>
   <v>       0.59413074       0.43738046       0.50056664 </v>
   <v>       0.94033006       0.46880776       0.50179355 </v>
   <v>       0.98076963       0.43649088       0.49352386 </v>
   <v>       0.94646863       0.35831914       0.48834158 </v>
   <v>       0.86453616       0.42360777       0.50064373 </v>
   <v>       0.20217716       0.57958598       0.53362874 </v>
   <v>       0.39958789       0.81474209       0.53382710 </v>
   <v>       0.43693627       0.61741265       0.53357181 </v>
   <v>       0.63184780       0.19502232       0.53690498 </v>
   <v>       0.82263646       0.43341024       0.53695267 </v>
   <v>       0.58451708       0.38573709       0.53698210 </v>
  </varray>
 </structure>
 <calculation>
  <scstep>
   <time name="dav">  133.38  134.69</time>
   <time name="total">  133.54  134.85</time>
   <energy>
    <i name="alphaZ">     38.69687736 </i>
    <i name="ewald">  29427.18204817 </i>
    <i name="hartreedc"> -37037.74754202 </i>
    <i name="XCdc">    913.53915428 </i>
    <i name="pawpsdc">  23232.90898328 </i>
    <i name="pawaedc"> -23275.25302681 </i>
    <i name="eentropy">     -0.00000000 </i>
    <i name="bandstr">  -3204.92251105 </i>
    <i name="atom">   9249.68197117 </i>
    <i name="e_fr_energy">   -655.91404561 </i>
    <i name="e_wo_entrp">   -655.91404561 </i>
    <i name="e_0_energy">   -655.91404561 </i>
   </energy>
  </scstep>
  <scstep>
   <time name="dav">  146.50  147.89</time>
   <time name="total">  146.51  147.90</time>
   <energy>
    <i name="e_fr_energy">   -656.54211110 </i>
    <i name="e_wo_entrp">   -656.54211110 </i>
    <i name="e_0_energy">   -656.54211110 </i>
   </energy>
  </scstep>
  <scstep>
   <time name="dav">  161.21  162.74</time>
   <time name="total">  161.21  162.75</time>
   <energy>
    <i name="e_fr_energy">   -656.56036789 </i>
    <i name="e_wo_entrp">   -656.56036789 </i>
    <i name="e_0_energy">   -656.56036789 </i>
   </energy>
  </scstep>
  <scstep>
   <time name="dav">  144.01  145.39</time>
   <time name="total">  144.02  145.40</time>
   <energy>
    <i name="e_fr_energy">   -656.56063072 </i>
    <i name="e_wo_entrp">   -656.56063072 </i>
    <i name="e_0_energy">   -656.56063072 </i>
   </energy>
  </scstep>
  <scstep>
   <time name="dav">  138.75  140.07</time>
   <time name="total">  138.75  140.08</time>
   <energy>
    <i name="e_fr_energy">   -656.56064456 </i>
    <i name="e_wo_entrp">   -656.56064456 </i>
    <i name="e_0_energy">   -656.56064456 </i>
   </energy>
  </scstep>
  <scstep>
   <time name="dav">  114.90  116.00</time>
   <time name="total">  114.92  116.01</time>
   <energy>
    <i name="alphaZ">     38.69687736 </i>
    <i name="ewald">  29427.18204817 </i>
    <i name="hartreedc"> -37037.74754202 </i>
    <i name="XCdc">    913.53915428 </i>
    <i name="pawpsdc">  23232.90898328 </i>
    <i name="pawaedc"> -23275.25302681 </i>
    <i name="eentropy">     -0.00000000 </i>
    <i name="bandstr">  -3205.56911045 </i>
    <i name="atom">   9249.68197117 </i>
    <i name="e_fr_energy">   -656.56064502 </i>
    <i name="e_wo_entrp">   -656.56064502 </i>
    <i name="e_0_energy">   -656.56064502 </i>
   </energy>
  </scstep>
  <structure>
   <crystal>
    <varray name="basis" >
     <v>      22.30221584      -0.01091041       0.00000000 </v>
     <v>     -11.16060956      19.27705453       0.00000000 </v>
     <v>       0.00000000       0.00000000      20.00000000 </v>
    </varray>
    <i name="volume">   8595.98527906 </i>
    <varray name="rec_basis" >
     <v>       0.04485130       0.02596703       0.00000000 </v>
     <v>       0.00002538       0.05188984       0.00000000 </v>
     <v>       0.00000000       0.00000000       0.05000000 </v>
    </varray>
   </crystal>
   <varray name="positions" >
    <v>       0.13288409       0.67992401       0.54247516 </v>
    <v>       0.08175148       0.68813330       0.47912082 </v>
    <v>       0.05144169       0.66996848       0.56243979 </v>
    <v>       0.18209080       0.64227584       0.47143256 </v>
    <v>       0.14754613       0.47900944       0.45992495 </v>
    <v>       0.10191644       0.41746018       0.52262243 </v>
    <v>       0.06979947       0.40125189       0.43947372 </v>
    <v>       0.97894400       0.33960592       0.51080556 </v>
    <v>       0.29466655       0.54225578       0.53657751 </v>
    <v>       0.26964610       0.72205122       0.53670543 </v>
    <v>       0.38895499       0.32378540       0.48956182 </v>
    <v>       0.33720925       0.44746115       0.54188458 </v>
    <v>       0.32947892       0.38759704       0.47917795 </v>
    <v>       0.34785505       0.37649785       0.56273002 </v>
    <v>       0.37460832       0.53468108       0.47101643 </v>
    <v>       0.38130004       0.03651923       0.51001022 </v>
    <v>       0.35344206       0.86857216       0.45978886 </v>
    <v>       0.33693547       0.91381586       0.52232837 </v>
    <v>       0.35297645       0.94598356       0.43918058 </v>
    <v>       0.47442111       0.74747369       0.53696493 </v>
    <v>       0.72525703       0.46556856       0.53885198 </v>
    <v>       0.55228741       0.25607985       0.53883304 </v>
    <v>       0.76136186       0.29259708       0.53877123 </v>
    <v>       0.69318870       0.06074635       0.49045569 </v>
    <v>       0.68976434       0.13893321       0.49181027 </v>
    <v>       0.68639012       0.09704552       0.56714271 </v>
    <v>       0.56949952       0.88517847       0.54240335 </v>
    <v>       0.62940862       0.93751634       0.47981568 </v>
    <v>       0.64036986       0.96695225       0.56339431 </v>
    <v>       0.48247389       0.83531793       0.47165597 </v>
    <v>       0.47051875       0.32734169       0.49188947 </v>
    <v>       0.43125116       0.33061989       0.56671826 </v>
    <v>       0.95791029       0.62912189       0.48944634 </v>
    <v>       0.87940338       0.54766375       0.49168657 </v>
    <v>       0.92197605       0.58686394       0.56657695 </v>
    <v>       0.45573662       0.11941454       0.51485238 </v>
    <v>       0.42481354       0.07952960       0.43590563 </v>
    <v>       0.55550124       0.17295859       0.46630545 </v>
    <v>       0.68523316       0.56199950       0.51506299 </v>
    <v>       0.67652425       0.59198416       0.43553202 </v>
    <v>       0.67709345       0.63646359       0.50892080 </v>
    <v>       0.53705819       0.66393624       0.45926615 </v>
    <v>       0.59874687       0.68054374       0.52188880 </v>
    <v>       0.61493792       0.66458970       0.43875977 </v>
    <v>       0.63876381       0.46177510       0.46594810 </v>
    <v>       0.89642924       0.33181148       0.51420340 </v>
    <v>       0.93734211       0.34051097       0.43592299 </v>
    <v>       0.84403637       0.37891468       0.46603413 </v>
    <v>       0.08520507       0.54923055       0.50184632 </v>
    <v>       0.04496981       0.58152009       0.51071765 </v>
    <v>       0.07972144       0.65865197       0.52419200 </v>
    <v>       0.16124373       0.59420345       0.50152269 </v>
    <v>       0.05351034       0.47674008       0.49186277 </v>
    <v>       0.09536634       0.44194768       0.47749424 </v>
    <v>       0.30251802       0.69886255       0.53331877 </v>
    <v>       0.27390677       0.62654643       0.53237265 </v>
    <v>       0.31787318       0.59843011       0.53324313 </v>
    <v>       0.37468681       0.74296309       0.53252664 </v>
    <v>       0.39011568       0.64221821       0.53242482 </v>
    <v>       0.35880611       0.41571173       0.52408568 </v>
    <v>       0.36820708       0.92068932       0.47731784 </v>
    <v>       0.41832299       0.71444826       0.53345417 </v>
    <v>       0.65432220       0.26618188       0.53457382 </v>
    <v>       0.72606885       0.31296871       0.53528629 </v>
    <v>       0.75148855       0.38475160       0.53459667 </v>
    <v>       0.70485461       0.40979299       0.53536222 </v>
    <v>       0.63313642       0.36332064       0.53465017 </v>
    <v>       0.60801157       0.29150094       0.53533539 </v>
    <v>       0.48597155       0.93201911       0.50205376 </v>
    <v>       0.55850238       0.97282498       0.51104999 </v>
    <v>       0.59120342       0.04567118       0.50959297 </v>
    <v>       0.66913844       0.08769693       0.51464524 </v>
    <v>       0.60125815       0.93866858       0.52467686 </v>
    <v>       0.45515489       0.85594358       0.50173772 </v>
    <v>       0.46769332       0.53121051       0.50152976 </v>
    <v>       0.43579930       0.45860592       0.51052676 </v>
    <v>       0.47585461       0.42595912       0.50916847 </v>
    <v>       0.43975595       0.34792740       0.51422740 </v>
    <v>       0.42250846       0.56194562       0.50125480 </v>
    <v>       0.97218206       0.54174279       0.50926942 </v>
    <v>       0.93079457       0.57826796       0.51412693 </v>
    <v>       0.54978271       0.07698500       0.50196348 </v>
    <v>       0.47701177       0.03596102       0.49358743 </v>
    <v>       0.44484121       0.96318043       0.49191738 </v>
    <v>       0.43280286       0.06972034       0.48830766 </v>
    <v>       0.58002339       0.15278558       0.50077529 </v>
    <v>       0.54865218       0.46754255       0.50161568 </v>
    <v>       0.58057730       0.54038385       0.49316196 </v>
    <v>       0.54005888       0.57249772       0.49142677 </v>
    <v>       0.65863268       0.58463605       0.48789185 </v>
    <v>       0.57434683       0.64923095       0.47685456 </v>
    <v>       0.59413074       0.43738046       0.50056664 </v>
    <v>       0.94033006       0.46880776       0.50179355 </v>
    <v>       0.98076963       0.43649088       0.49352386 </v>
    <v>       0.94646863       0.35831914       0.48834158 </v>
    <v>       0.86453616       0.42360777       0.50064373 </v>
    <v>       0.20217716       0.57958598       0.53362874 </v>
    <v>       0.39958789       0.81474209       0.53382710 </v>
    <v>       0.43693627       0.61741265       0.53357181 </v>
    <v>       0.63184780       0.19502232       0.53690498 </v>
    <v>       0.82263646       0.43341024       0.53695267 </v>
    <v>       0.58451708       0.38573709       0.53698210 </v>
   </varray>
  </structure>
  <varray name="forces" >
   <v>       0.00064762       0.00108826       0.00089083 </v>
   <v>      -0.00034308      -0.00082627      -0.00147236 </v>
   <v>      -0.00068124      -0.00096528      -0.00182349 </v>
   <v>       0.00159757      -0.00293290       0.00101846 </v>
   <v>       0.00069275      -0.00240304       0.00121012 </v>
   <v>       0.00008456      -0.00097122      -0.00002655 </v>
   <v>      -0.00067352      -0.00043792       0.00196868 </v>
   <v>       0.00092888       0.00004734       0.00145876 </v>
   <v>      -0.00048592       0.00054634      -0.00133641 </v>
   <v>       0.00217388      -0.00061630       0.00046220 </v>
   <v>      -0.00175864      -0.00090202      -0.00267395 </v>
   <v>      -0.00240988      -0.00167128      -0.00009914 </v>
   <v>      -0.00189317      -0.00046757      -0.00211781 </v>
   <v>      -0.00168825      -0.00117444      -0.00065989 </v>
   <v>      -0.00417869      -0.00673461      -0.00377124 </v>
   <v>      -0.00183696       0.00002677       0.00184919 </v>
   <v>      -0.00226584      -0.00083034      -0.00028548 </v>
   <v>      -0.00224331       0.00031267       0.00153920 </v>
   <v>      -0.00087561       0.00179065       0.00133566 </v>
   <v>       0.00339768      -0.00125220      -0.00271512 </v>
   <v>       0.00199924       0.00014878       0.00168368 </v>
   <v>      -0.00070675       0.00067718       0.00159817 </v>
   <v>      -0.00275815       0.00026995       0.00198236 </v>
   <v>      -0.00053747       0.00179639      -0.00198023 </v>
   <v>       0.00002409       0.00022506      -0.00002978 </v>
   <v>       0.00162603      -0.00015232      -0.00193555 </v>
   <v>      -0.00034049       0.00060212      -0.00029780 </v>
   <v>      -0.00076013      -0.00009546      -0.00034926 </v>
   <v>       0.00013912      -0.00044310      -0.00198648 </v>
   <v>       0.00538745       0.00108075      -0.00669227 </v>
   <v>       0.00014432       0.00095429      -0.00141614 </v>
   <v>       0.00033977       0.00073072      -0.00026635 </v>
   <v>       0.00089248      -0.00048467      -0.00159551 </v>
   <v>       0.00061314       0.00048308      -0.00102000 </v>
   <v>       0.00030956       0.00090170      -0.00244514 </v>
   <v>       0.00134461       0.00061760       0.00189441 </v>
   <v>      -0.00106589       0.00025998       0.00146178 </v>
   <v>       0.00113528      -0.00058970      -0.00194918 </v>
   <v>      -0.00116084      -0.00086936       0.00119566 </v>
   <v>       0.00208208       0.00015476       0.00268877 </v>
   <v>       0.00178357      -0.00080141       0.00224487 </v>
   <v>       0.00198766       0.00058631       0.00074763 </v>
   <v>       0.00070404       0.00124784       0.00031509 </v>
   <v>       0.00203500       0.00023583       0.00095467 </v>
   <v>      -0.00171915       0.00275802       0.00030310 </v>
   <v>       0.00032153      -0.00004451       0.00274909 </v>
   <v>      -0.00023436      -0.00214405       0.00064809 </v>
   <v>       0.00101310       0.00017707      -0.00032206 </v>
   <v>      -0.00314986       0.00421179       0.00097994 </v>
   <v>       0.00496321      -0.00131614       0.00129275 </v>
   <v>      -0.00084978       0.00080184       0.00018395 </v>
   <v>      -0.00304800       0.00000417      -0.00370817 </v>
   <v>       0.00315687      -0.00424294       0.00165889 </v>
   <v>      -0.00017824       0.00095235       0.00081551 </v>
   <v>       0.00229957       0.00149505      -0.00071758 </v>
   <v>       0.00198372      -0.00418775       0.00139154 </v>
   <v>       0.00370918      -0.00304981      -0.00266435 </v>
   <v>      -0.00333534       0.00808677      -0.00189832 </v>
   <v>       0.00386203      -0.00309818      -0.00534125 </v>
   <v>       0.00212809       0.00379964      -0.00134199 </v>
   <v>      -0.00003858       0.00003873       0.00110857 </v>
   <v>      -0.00199590      -0.00018068      -0.00399826 </v>
   <v>      -0.00515052       0.00233742       0.00090462 </v>
   <v>       0.00128726      -0.00182342       0.00080865 </v>
   <v>      -0.00497844      -0.00009600       0.00317057 </v>
   <v>       0.00345900      -0.00046940      -0.00133587 </v>
   <v>       0.00036401       0.00099598       0.00008822 </v>
   <v>       0.00143416      -0.00008215       0.00166952 </v>
   <v>       0.00103766      -0.00040024      -0.00192740 </v>
   <v>       0.00099183      -0.00171297       0.00163668 </v>
   <v>      -0.00239701       0.00192663      -0.00152452 </v>
   <v>      -0.00055646       0.00013502      -0.00054172 </v>
   <v>      -0.00076451       0.00106916      -0.00109219 </v>
   <v>      -0.00081702      -0.00120814       0.00119439 </v>
   <v>      -0.00159667      -0.00287755      -0.00255378 </v>
   <v>       0.00295700      -0.00065597       0.00182906 </v>
   <v>      -0.00492011       0.00195976      -0.00091184 </v>
   <v>      -0.00043888       0.00320145      -0.00094036 </v>
   <v>       0.00455400       0.00461596      -0.00163139 </v>
   <v>      -0.00270280       0.00395054       0.00020146 </v>
   <v>       0.00153376      -0.00251678      -0.00018265 </v>
   <v>       0.00053984      -0.00129084      -0.00064389 </v>
   <v>      -0.00114695      -0.00082178       0.00080879 </v>
   <v>       0.00142827      -0.00290455       0.00103530 </v>
   <v>       0.00056527       0.00015956       0.00190905 </v>
   <v>       0.00001805       0.00202562       0.00224844 </v>
   <v>       0.00053438      -0.00074873      -0.00350101 </v>
   <v>      -0.00507236       0.00277557       0.00155907 </v>
   <v>       0.00204688       0.00101241       0.00241406 </v>
   <v>       0.00181459       0.00225123       0.00063233 </v>
   <v>      -0.00033418       0.00357006       0.00201755 </v>
   <v>       0.00217102       0.00022387       0.00118440 </v>
   <v>       0.00105165      -0.00335604      -0.00182894 </v>
   <v>      -0.00410428       0.00202580       0.00208830 </v>
   <v>       0.00110070       0.00043489       0.00175943 </v>
   <v>      -0.00109571      -0.00221593       0.00043562 </v>
   <v>      -0.00022724      -0.00377576       0.00180306 </v>
   <v>      -0.00513531       0.00342937       0.00193471 </v>
   <v>       0.00063517      -0.00429490       0.00197244 </v>
   <v>      -0.00251334       0.00155564       0.00214201 </v>
   <v>      -0.00295201      -0.00207876       0.00021969 </v>
   <v>       0.00508468       0.00044965       0.00025360 </v>
  </varray>
  <varray name="stress" >
   <v>      -0.00690636       0.00194236      -0.00169883 </v>
   <v>       0.00194237       0.00386492       0.00197333 </v>
   <v>      -0.00169884       0.00197333      -0.23702078 </v>
  </varray>
  <energy>
   <i name="e_fr_energy">   -658.64646158 </i>
   <i name="e_wo_entrp">   -658.64646158 </i>
   <i name="e_0_energy">     -0.00000000 </i>
  </energy>
  <time name="totalsc">  954.05  963.53</time>
  <eigenvalues>
   <array>
    <dimension dim="1">band</dimension>
    <dimension dim="2">kpoint</dimension>
    <dimension dim="3">spin</dimension>
    <field>eigene</field>
    <field>occ</field>
    <set>
     <set comment="spin 1">
      <set comment="kpoint 1">
       <r>  -23.1515    1.0000 </r>
       <r>  -23.0977    1.0000 </r>
       <r>  -22.9066    1.0000 </r>
       <r>  -22.9055    1.0000 </r>
       <r>  -22.8529    1.0000 </r>
       <r>  -22.8516    1.0000 </r>
       <r>  -21.2427    1.0000 </r>
       <r>  -21.1295    1.0000 </r>
       <r>  -21.1285    1.0000 </r>
       <r>  -20.4373    1.0000 </r>
       <r>  -20.1395    1.0000 </r>
       <r>  -19.4680    1.0000 </r>
       <r>  -19.4669    1.0000 </r>
       <r>  -19.4515    1.0000 </r>
       <r>  -19.2509    1.0000 </r>
       <r>  -19.2506    1.0000 </r>
       <r>  -18.7954    1.0000 </r>
       <r>  -18.1453    1.0000 </r>
       <r>  -18.1440    1.0000 </r>
       <r>  -17.6920    1.0000 </r>
       <r>  -17.6916    1.0000 </r>
       <r>  -17.5350    1.0000 </r>
       <r>  -17.5349    1.0000 </r>
       <r>  -17.5344    1.0000 </r>
       <r>  -17.2893    1.0000 </r>
       <r>  -17.2030    1.0000 </r>
       <r>  -17.2018    1.0000 </r>
       <r>  -16.4072    1.0000 </r>
       <r>  -16.3554    1.0000 </r>
       <r>  -16.3545    1.0000 </r>
       <r>  -16.0818    1.0000 </r>
       <r>  -16.0462    1.0000 </r>
       <r>  -16.0452    1.0000 </r>
       <r>  -15.3076    1.0000 </r>
       <r>  -15.3073    1.0000 </r>
       <r>  -15.3001    1.0000 </r>
       <r>  -15.0758    1.0000 </r>
       <r>  -15.0755    1.0000 </r>
       <r>  -14.5012    1.0000 </r>
       <r>  -14.2582    1.0000 </r>
       <r>  -14.2568    1.0000 </r>
       <r>  -13.3861    1.0000 </r>
       <r>  -13.2400    1.0000 </r>
       <r>  -13.2386    1.0000 </r>
       <r>  -13.1929    1.0000 </r>
       <r>  -13.1873    1.0000 </r>
       <r>  -13.1862    1.0000 </r>
       <r>  -12.8716    1.0000 </r>
       <r>  -12.3291    1.0000 </r>
       <r>  -12.3282    1.0000 </r>
       <r>  -12.2470    1.0000 </r>
       <r>  -11.8962    1.0000 </r>
       <r>  -11.8958    1.0000 </r>
       <r>  -11.6965    1.0000 </r>
       <r>  -11.5514    1.0000 </r>
       <r>  -11.4953    1.0000 </r>
       <r>  -11.3701    1.0000 </r>
       <r>  -11.3686    1.0000 </r>
       <r>  -11.3553    1.0000 </r>
       <r>  -11.0525    1.0000 </r>
       <r>  -10.8926    1.0000 </r>
       <r>  -10.8900    1.0000 </r>
       <r>  -10.8273    1.0000 </r>
       <r>  -10.7732    1.0000 </r>
       <r>  -10.7724    1.0000 </r>
       <r>  -10.3139    1.0000 </r>
       <r>  -10.2906    1.0000 </r>
       <r>  -10.2889    1.0000 </r>
       <r>  -10.2493    1.0000 </r>
       <r>  -10.2391    1.0000 </r>
       <r>  -10.2389    1.0000 </r>
       <r>   -9.9475    1.0000 </r>
       <r>   -9.9464    1.0000 </r>
       <r>   -9.9450    1.0000 </r>
       <r>   -9.8373    1.0000 </r>
       <r>   -9.7739    1.0000 </r>
       <r>   -9.7731    1.0000 </r>
       <r>   -9.4599    1.0000 </r>
       <r>   -9.3915    1.0000 </r>
       <r>   -9.3640    1.0000 </r>
       <r>   -9.3636    1.0000 </r>
       <r>   -9.2757    1.0000 </r>
       <r>   -9.2734    1.0000 </r>
       <r>   -9.2597    1.0000 </r>
       <r>   -9.1777    1.0000 </r>
       <r>   -9.1770    1.0000 </r>
       <r>   -9.1628    1.0000 </r>
       <r>   -9.1318    1.0000 </r>
       <r>   -9.1300    1.0000 </r>
       <r>   -9.0805    1.0000 </r>
       <r>   -9.0801    1.0000 </r>
       <r>   -9.0770    1.0000 </r>
       <r>   -8.8406    1.0000 </r>
       <r>   -8.8397    1.0000 </r>
       <r>   -8.7956    1.0000 </r>
       <r>   -8.7425    1.0000 </r>
       <r>   -8.7133    1.0000 </r>
       <r>   -8.6816    1.0000 </r>
       <r>   -8.6805    1.0000 </r>
       <r>   -8.6098    1.0000 </r>
       <r>   -8.6088    1.0000 </r>
       <r>   -8.4765    1.0000 </r>
       <r>   -8.4726    1.0000 </r>
       <r>   -8.4722    1.0000 </r>
       <r>   -8.1565    1.0000 </r>
       <r>   -8.1559    1.0000 </r>
       <r>   -8.0827    1.0000 </r>
       <r>   -8.0788    1.0000 </r>
       <r>   -7.8442    1.0000 </r>
       <r>   -7.8417    1.0000 </r>
       <r>   -7.8174    1.0000 </r>
       <r>   -7.6304    1.0000 </r>
       <r>   -7.5569    1.0000 </r>
       <r>   -7.5563    1.0000 </r>
       <r>   -7.5372    1.0000 </r>
       <r>   -7.3881    1.0000 </r>
       <r>   -7.3872    1.0000 </r>
       <r>   -7.2993    1.0000 </r>
       <r>   -6.6958    1.0000 </r>
       <r>   -6.4691    1.0000 </r>
       <r>   -6.4670    1.0000 </r>
       <r>   -6.0126    1.0000 </r>
       <r>   -6.0108    1.0000 </r>
       <r>   -5.6077    1.0000 </r>
       <r>   -5.4901    1.0000 </r>
       <r>   -5.4887    1.0000 </r>
       <r>   -5.4882    1.0000 </r>
       <r>   -5.2979    1.0000 </r>
       <r>   -5.2199    1.0000 </r>
       <r>   -5.2188    1.0000 </r>
       <r>   -5.2069    1.0000 </r>
       <r>   -5.0303    1.0000 </r>
       <r>   -5.0282    1.0000 </r>
       <r>   -4.8125    1.0000 </r>
       <r>   -4.8112    1.0000 </r>
       <r>   -2.3090    0.0000 </r>
       <r>   -2.3053    0.0000 </r>
       <r>   -2.0559    0.0000 </r>
       <r>   -1.6289    0.0000 </r>
       <r>   -1.6276    0.0000 </r>
       <r>   -1.1862    0.0000 </r>
       <r>   -0.6409    0.0000 </r>
       <r>   -0.6397    0.0000 </r>
       <r>   -0.6331    0.0000 </r>
       <r>   -0.3720    0.0000 </r>
       <r>   -0.3202    0.0000 </r>
       <r>   -0.3183    0.0000 </r>
       <r>   -0.0973    0.0000 </r>
       <r>   -0.0947    0.0000 </r>
       <r>   -0.0639    0.0000 </r>
       <r>   -0.0624    0.0000 </r>
       <r>    0.0939    0.0000 </r>
       <r>    0.1026    0.0000 </r>
       <r>    0.1712    0.0000 </r>
       <r>    0.1740    0.0000 </r>
       <r>    0.3642    0.0000 </r>
       <r>    0.4537    0.0000 </r>
       <r>    0.4555    0.0000 </r>
       <r>    0.5606    0.0000 </r>
       <r>    0.5990    0.0000 </r>
       <r>    0.6642    0.0000 </r>
       <r>    0.6659    0.0000 </r>
       <r>    0.6726    0.0000 </r>
       <r>    0.7064    0.0000 </r>
       <r>    0.7353    0.0000 </r>
       <r>    0.7371    0.0000 </r>
       <r>    0.8047    0.0000 </r>
       <r>    0.8051    0.0000 </r>
       <r>    0.9335    0.0000 </r>
       <r>    0.9622    0.0000 </r>
       <r>    0.9658    0.0000 </r>
       <r>    0.9830    0.0000 </r>
       <r>    1.0568    0.0000 </r>
       <r>    1.0760    0.0000 </r>
       <r>    1.0822    0.0000 </r>
       <r>    1.0870    0.0000 </r>
       <r>    1.0898    0.0000 </r>
       <r>    1.1318    0.0000 </r>
       <r>    1.2290    0.0000 </r>
       <r>    1.2423    0.0000 </r>
       <r>    1.2426    0.0000 </r>
       <r>    1.2648    0.0000 </r>
       <r>    1.3185    0.0000 </r>
       <r>    1.3524    0.0000 </r>
       <r>    1.3542    0.0000 </r>
       <r>    1.4678    0.0000 </r>
       <r>    1.4707    0.0000 </r>
       <r>    1.4919    0.0000 </r>
       <r>    1.4980    0.0000 </r>
       <r>    1.5005    0.0000 </r>
       <r>    1.5702    0.0000 </r>
       <r>    1.7041    0.0000 </r>
      </set>
      <set comment="kpoint 2">
       <r>  -23.1515    1.0000 </r>
       <r>  -23.0978    1.0000 </r>
       <r>  -22.9066    1.0000 </r>
       <r>  -22.9054    1.0000 </r>
       <r>  -22.8529    1.0000 </r>
       <r>  -22.8516    1.0000 </r>
       <r>  -21.2426    1.0000 </r>
       <r>  -21.1297    1.0000 </r>
       <r>  -21.1285    1.0000 </r>
       <r>  -20.4369    1.0000 </r>
       <r>  -20.1400    1.0000 </r>
       <r>  -19.4680    1.0000 </r>
       <r>  -19.4669    1.0000 </r>
       <r>  -19.4515    1.0000 </r>
       <r>  -19.2508    1.0000 </r>
       <r>  -19.2501    1.0000 </r>
       <r>  -18.7963    1.0000 </r>
       <r>  -18.1453    1.0000 </r>
       <r>  -18.1430    1.0000 </r>
       <r>  -17.6923    1.0000 </r>
       <r>  -17.6920    1.0000 </r>
       <r>  -17.5350    1.0000 </r>
       <r>  -17.5348    1.0000 </r>
       <r>  -17.5344    1.0000 </r>
       <r>  -17.2891    1.0000 </r>
       <r>  -17.2031    1.0000 </r>
       <r>  -17.2018    1.0000 </r>
       <r>  -16.4071    1.0000 </r>
       <r>  -16.3555    1.0000 </r>
       <r>  -16.3545    1.0000 </r>
       <r>  -16.0817    1.0000 </r>
       <r>  -16.0463    1.0000 </r>
       <r>  -16.0452    1.0000 </r>
       <r>  -15.3075    1.0000 </r>
       <r>  -15.3073    1.0000 </r>
       <r>  -15.3001    1.0000 </r>
       <r>  -15.0758    1.0000 </r>
       <r>  -15.0750    1.0000 </r>
       <r>  -14.5041    1.0000 </r>
       <r>  -14.2574    1.0000 </r>
       <r>  -14.2545    1.0000 </r>
       <r>  -13.3887    1.0000 </r>
       <r>  -13.2398    1.0000 </r>
       <r>  -13.2395    1.0000 </r>
       <r>  -13.1927    1.0000 </r>
       <r>  -13.1861    1.0000 </r>
       <r>  -13.1844    1.0000 </r>
       <r>  -12.8716    1.0000 </r>
       <r>  -12.3293    1.0000 </r>
       <r>  -12.3284    1.0000 </r>
       <r>  -12.2475    1.0000 </r>
       <r>  -11.8957    1.0000 </r>
       <r>  -11.8957    1.0000 </r>
       <r>  -11.6966    1.0000 </r>
       <r>  -11.5515    1.0000 </r>
       <r>  -11.4956    1.0000 </r>
       <r>  -11.3698    1.0000 </r>
       <r>  -11.3685    1.0000 </r>
       <r>  -11.3552    1.0000 </r>
       <r>  -11.0524    1.0000 </r>
       <r>  -10.8931    1.0000 </r>
       <r>  -10.8902    1.0000 </r>
       <r>  -10.8270    1.0000 </r>
       <r>  -10.7730    1.0000 </r>
       <r>  -10.7723    1.0000 </r>
       <r>  -10.3142    1.0000 </r>
       <r>  -10.2905    1.0000 </r>
       <r>  -10.2887    1.0000 </r>
       <r>  -10.2502    1.0000 </r>
       <r>  -10.2389    1.0000 </r>
       <r>  -10.2384    1.0000 </r>
       <r>   -9.9475    1.0000 </r>
       <r>   -9.9464    1.0000 </r>
       <r>   -9.9450    1.0000 </r>
       <r>   -9.8372    1.0000 </r>
       <r>   -9.7740    1.0000 </r>
       <r>   -9.7731    1.0000 </r>
       <r>   -9.4598    1.0000 </r>
       <r>   -9.3921    1.0000 </r>
       <r>   -9.3637    1.0000 </r>
       <r>   -9.3629    1.0000 </r>
       <r>   -9.2757    1.0000 </r>
       <r>   -9.2733    1.0000 </r>
       <r>   -9.2597    1.0000 </r>
       <r>   -9.1777    1.0000 </r>
       <r>   -9.1770    1.0000 </r>
       <r>   -9.1628    1.0000 </r>
       <r>   -9.1318    1.0000 </r>
       <r>   -9.1300    1.0000 </r>
       <r>   -9.0805    1.0000 </r>
       <r>   -9.0801    1.0000 </r>
       <r>   -9.0770    1.0000 </r>
       <r>   -8.8408    1.0000 </r>
       <r>   -8.8397    1.0000 </r>
       <r>   -8.7962    1.0000 </r>
       <r>   -8.7426    1.0000 </r>
       <r>   -8.7145    1.0000 </r>
       <r>   -8.6809    1.0000 </r>
       <r>   -8.6798    1.0000 </r>
       <r>   -8.6095    1.0000 </r>
       <r>   -8.6087    1.0000 </r>
       <r>   -8.4765    1.0000 </r>
       <r>   -8.4727    1.0000 </r>
       <r>   -8.4722    1.0000 </r>
       <r>   -8.1563    1.0000 </r>
       <r>   -8.1560    1.0000 </r>
       <r>   -8.0828    1.0000 </r>
       <r>   -8.0788    1.0000 </r>
       <r>   -7.8441    1.0000 </r>
       <r>   -7.8415    1.0000 </r>
       <r>   -7.8172    1.0000 </r>
       <r>   -7.6306    1.0000 </r>
       <r>   -7.5570    1.0000 </r>
       <r>   -7.5563    1.0000 </r>
       <r>   -7.5371    1.0000 </r>
       <r>   -7.3903    1.0000 </r>
       <r>   -7.3874    1.0000 </r>
       <r>   -7.2965    1.0000 </r>
       <r>   -6.6974    1.0000 </r>
       <r>   -6.4676    1.0000 </r>
       <r>   -6.4669    1.0000 </r>
       <r>   -6.0132    1.0000 </r>
       <r>   -6.0108    1.0000 </r>
       <r>   -5.6075    1.0000 </r>
       <r>   -5.4911    1.0000 </r>
       <r>   -5.4886    1.0000 </r>
       <r>   -5.4872    1.0000 </r>
       <r>   -5.2983    1.0000 </r>
       <r>   -5.2198    1.0000 </r>
       <r>   -5.2188    1.0000 </r>
       <r>   -5.2069    1.0000 </r>
       <r>   -5.0300    1.0000 </r>
       <r>   -5.0281    1.0000 </r>
       <r>   -4.8127    1.0000 </r>
       <r>   -4.8112    1.0000 </r>
       <r>   -2.3088    0.0000 </r>
       <r>   -2.3052    0.0000 </r>
       <r>   -2.0566    0.0000 </r>
       <r>   -1.6282    0.0000 </r>
       <r>   -1.6274    0.0000 </r>
       <r>   -1.1868    0.0000 </r>
       <r>   -0.6409    0.0000 </r>
       <r>   -0.6397    0.0000 </r>
       <r>   -0.6331    0.0000 </r>
       <r>   -0.3717    0.0000 </r>
       <r>   -0.3198    0.0000 </r>
       <r>   -0.3182    0.0000 </r>
       <r>   -0.0993    0.0000 </r>
       <r>   -0.0969    0.0000 </r>
       <r>   -0.0623    0.0000 </r>
       <r>   -0.0605    0.0000 </r>
       <r>    0.0923    0.0000 </r>
       <r>    0.1037    0.0000 </r>
       <r>    0.1719    0.0000 </r>
       <r>    0.1749    0.0000 </r>
       <r>    0.3643    0.0000 </r>
       <r>    0.4531    0.0000 </r>
       <r>    0.4547    0.0000 </r>
       <r>    0.5608    0.0000 </r>
       <r>    0.5994    0.0000 </r>
       <r>    0.6634    0.0000 </r>
       <r>    0.6647    0.0000 </r>
       <r>    0.6728    0.0000 </r>
       <r>    0.7046    0.0000 </r>
       <r>    0.7364    0.0000 </r>
       <r>    0.7393    0.0000 </r>
       <r>    0.8049    0.0000 </r>
       <r>    0.8058    0.0000 </r>
       <r>    0.9285    0.0000 </r>
       <r>    0.9644    0.0000 </r>
       <r>    0.9679    0.0000 </r>
       <r>    0.9818    0.0000 </r>
       <r>    1.0573    0.0000 </r>
       <r>    1.0715    0.0000 </r>
       <r>    1.0758    0.0000 </r>
       <r>    1.0930    0.0000 </r>
       <r>    1.0948    0.0000 </r>
       <r>    1.1349    0.0000 </r>
       <r>    1.2215    0.0000 </r>
       <r>    1.2419    0.0000 </r>
       <r>    1.2494    0.0000 </r>
       <r>    1.2645    0.0000 </r>
       <r>    1.3167    0.0000 </r>
       <r>    1.3542    0.0000 </r>
       <r>    1.3568    0.0000 </r>
       <r>    1.4636    0.0000 </r>
       <r>    1.4667    0.0000 </r>
       <r>    1.4914    0.0000 </r>
       <r>    1.5011    0.0000 </r>
       <r>    1.5043    0.0000 </r>
       <r>    1.5724    0.0000 </r>
       <r>    1.7030    0.0000 </r>
      </set>
      <set comment="kpoint 3">
       <r>  -23.1515    1.0000 </r>
       <r>  -23.0978    1.0000 </r>
       <r>  -22.9065    1.0000 </r>
       <r>  -22.9054    1.0000 </r>
       <r>  -22.8530    1.0000 </r>
       <r>  -22.8516    1.0000 </r>
       <r>  -21.2422    1.0000 </r>
       <r>  -21.1303    1.0000 </r>
       <r>  -21.1285    1.0000 </r>
       <r>  -20.4357    1.0000 </r>
       <r>  -20.1415    1.0000 </r>
       <r>  -19.4678    1.0000 </r>
       <r>  -19.4668    1.0000 </r>
       <r>  -19.4515    1.0000 </r>
       <r>  -19.2508    1.0000 </r>
       <r>  -19.2483    1.0000 </r>
       <r>  -18.7991    1.0000 </r>
       <r>  -18.1453    1.0000 </r>
       <r>  -18.1403    1.0000 </r>
       <r>  -17.6942    1.0000 </r>
       <r>  -17.6921    1.0000 </r>
       <r>  -17.5350    1.0000 </r>
       <r>  -17.5347    1.0000 </r>
       <r>  -17.5344    1.0000 </r>
       <r>  -17.2884    1.0000 </r>
       <r>  -17.2033    1.0000 </r>
       <r>  -17.2019    1.0000 </r>
       <r>  -16.4070    1.0000 </r>
       <r>  -16.3558    1.0000 </r>
       <r>  -16.3545    1.0000 </r>
       <r>  -16.0815    1.0000 </r>
       <r>  -16.0464    1.0000 </r>
       <r>  -16.0453    1.0000 </r>
       <r>  -15.3074    1.0000 </r>
       <r>  -15.3072    1.0000 </r>
       <r>  -15.3001    1.0000 </r>
       <r>  -15.0758    1.0000 </r>
       <r>  -15.0735    1.0000 </r>
       <r>  -14.5125    1.0000 </r>
       <r>  -14.2574    1.0000 </r>
       <r>  -14.2458    1.0000 </r>
       <r>  -13.3964    1.0000 </r>
       <r>  -13.2419    1.0000 </r>
       <r>  -13.2392    1.0000 </r>
       <r>  -13.1926    1.0000 </r>
       <r>  -13.1853    1.0000 </r>
       <r>  -13.1768    1.0000 </r>
       <r>  -12.8716    1.0000 </r>
       <r>  -12.3301    1.0000 </r>
       <r>  -12.3287    1.0000 </r>
       <r>  -12.2489    1.0000 </r>
       <r>  -11.8954    1.0000 </r>
       <r>  -11.8941    1.0000 </r>
       <r>  -11.6970    1.0000 </r>
       <r>  -11.5517    1.0000 </r>
       <r>  -11.4963    1.0000 </r>
       <r>  -11.3692    1.0000 </r>
       <r>  -11.3678    1.0000 </r>
       <r>  -11.3548    1.0000 </r>
       <r>  -11.0523    1.0000 </r>
       <r>  -10.8948    1.0000 </r>
       <r>  -10.8908    1.0000 </r>
       <r>  -10.8263    1.0000 </r>
       <r>  -10.7725    1.0000 </r>
       <r>  -10.7719    1.0000 </r>
       <r>  -10.3152    1.0000 </r>
       <r>  -10.2904    1.0000 </r>
       <r>  -10.2881    1.0000 </r>
       <r>  -10.2522    1.0000 </r>
       <r>  -10.2389    1.0000 </r>
       <r>  -10.2367    1.0000 </r>
       <r>   -9.9475    1.0000 </r>
       <r>   -9.9464    1.0000 </r>
       <r>   -9.9450    1.0000 </r>
       <r>   -9.8367    1.0000 </r>
       <r>   -9.7741    1.0000 </r>
       <r>   -9.7732    1.0000 </r>
       <r>   -9.4597    1.0000 </r>
       <r>   -9.3939    1.0000 </r>
       <r>   -9.3637    1.0000 </r>
       <r>   -9.3605    1.0000 </r>
       <r>   -9.2757    1.0000 </r>
       <r>   -9.2729    1.0000 </r>
       <r>   -9.2599    1.0000 </r>
       <r>   -9.1777    1.0000 </r>
       <r>   -9.1770    1.0000 </r>
       <r>   -9.1628    1.0000 </r>
       <r>   -9.1318    1.0000 </r>
       <r>   -9.1300    1.0000 </r>
       <r>   -9.0805    1.0000 </r>
       <r>   -9.0801    1.0000 </r>
       <r>   -9.0770    1.0000 </r>
       <r>   -8.8414    1.0000 </r>
       <r>   -8.8397    1.0000 </r>
       <r>   -8.7980    1.0000 </r>
       <r>   -8.7430    1.0000 </r>
       <r>   -8.7175    1.0000 </r>
       <r>   -8.6812    1.0000 </r>
       <r>   -8.6762    1.0000 </r>
       <r>   -8.6087    1.0000 </r>
       <r>   -8.6080    1.0000 </r>
       <r>   -8.4766    1.0000 </r>
       <r>   -8.4727    1.0000 </r>
       <r>   -8.4721    1.0000 </r>
       <r>   -8.1560    1.0000 </r>
       <r>   -8.1558    1.0000 </r>
       <r>   -8.0830    1.0000 </r>
       <r>   -8.0787    1.0000 </r>
       <r>   -7.8438    1.0000 </r>
       <r>   -7.8412    1.0000 </r>
       <r>   -7.8168    1.0000 </r>
       <r>   -7.6311    1.0000 </r>
       <r>   -7.5575    1.0000 </r>
       <r>   -7.5564    1.0000 </r>
       <r>   -7.5371    1.0000 </r>
       <r>   -7.3968    1.0000 </r>
       <r>   -7.3875    1.0000 </r>
       <r>   -7.2890    1.0000 </r>
       <r>   -6.7023    1.0000 </r>
       <r>   -6.4669    1.0000 </r>
       <r>   -6.4627    1.0000 </r>
       <r>   -6.0147    1.0000 </r>
       <r>   -6.0109    1.0000 </r>
       <r>   -5.6068    1.0000 </r>
       <r>   -5.4925    1.0000 </r>
       <r>   -5.4886    1.0000 </r>
       <r>   -5.4855    1.0000 </r>
       <r>   -5.2997    1.0000 </r>
       <r>   -5.2198    1.0000 </r>
       <r>   -5.2188    1.0000 </r>
       <r>   -5.2070    1.0000 </r>
       <r>   -5.0292    1.0000 </r>
       <r>   -5.0276    1.0000 </r>
       <r>   -4.8132    1.0000 </r>
       <r>   -4.8112    1.0000 </r>
       <r>   -2.3084    0.0000 </r>
       <r>   -2.3050    0.0000 </r>
       <r>   -2.0587    0.0000 </r>
       <r>   -1.6278    0.0000 </r>
       <r>   -1.6251    0.0000 </r>
       <r>   -1.1887    0.0000 </r>
       <r>   -0.6409    0.0000 </r>
       <r>   -0.6397    0.0000 </r>
       <r>   -0.6332    0.0000 </r>
       <r>   -0.3710    0.0000 </r>
       <r>   -0.3192    0.0000 </r>
       <r>   -0.3172    0.0000 </r>
       <r>   -0.1049    0.0000 </r>
       <r>   -0.1021    0.0000 </r>
       <r>   -0.0592    0.0000 </r>
       <r>   -0.0550    0.0000 </r>
       <r>    0.0877    0.0000 </r>
       <r>    0.1069    0.0000 </r>
       <r>    0.1726    0.0000 </r>
       <r>    0.1787    0.0000 </r>
       <r>    0.3646    0.0000 </r>
       <r>    0.4500    0.0000 </r>
       <r>    0.4534    0.0000 </r>
       <r>    0.5613    0.0000 </r>
[...]
       <r>   -20.8399     0.0000    18.0000 </r>
       <r>   -20.7488     0.0000    18.0000 </r>
       <r>   -20.6576     0.0000    18.0000 </r>
       <r>   -20.5665     0.0000    18.0000 </r>
       <r>   -20.4754     0.0000    18.0000 </r>
       <r>   -20.3842     8.8443    18.8060 </r>
       <r>   -20.2931    12.0439    20.0000 </r>
       <r>   -20.2019    13.2620    21.2087 </r>
       <r>   -20.1108     7.6702    22.0000 </r>
       <r>   -20.0197     0.0000    22.0000 </r>
       <r>   -19.9285     0.0000    22.0000 </r>
       <r>   -19.8374     0.0000    22.0000 </r>
       <r>   -19.7463     0.0000    22.0000 </r>
       <r>   -19.6551     0.0000    22.0000 </r>
       <r>   -19.5640     0.0000    22.0000 </r>
       <r>   -19.4728     6.2319    22.5680 </r>
       <r>   -19.3817    35.8623    28.0000 </r>
       <r>   -19.2906     0.0000    28.0000 </r>
       <r>   -19.1994    28.7595    30.6211 </r>
       <r>   -19.1083     7.0542    31.3433 </r>
       <r>   -19.0172     7.6396    32.2306 </r>
       <r>   -18.9260     8.5969    33.1174 </r>
       <r>   -18.8349     4.1779    33.5489 </r>
       <r>   -18.7437     4.0194    34.0000 </r>
       <r>   -18.6526     0.0000    34.0000 </r>
       <r>   -18.5615     0.0000    34.0000 </r>
       <r>   -18.4703     0.0000    34.0000 </r>
       <r>   -18.3792     0.0000    34.0000 </r>
       <r>   -18.2881     0.0000    34.0000 </r>
       <r>   -18.1969     0.0000    34.0000 </r>
       <r>   -18.1058    26.8890    36.4506 </r>
       <r>   -18.0146     4.3722    36.8998 </r>
       <r>   -17.9235    11.4667    37.9805 </r>
       <r>   -17.8324     7.0768    38.6450 </r>
       <r>   -17.7412     5.1115    39.4005 </r>
       <r>   -17.6501    27.4290    42.0000 </r>
       <r>   -17.5590     0.0142    42.0013 </r>
       <r>   -17.4678    65.8206    48.0000 </r>
       <r>   -17.3767     0.0000    48.0000 </r>
       <r>   -17.2855     2.8498    48.2597 </r>
       <r>   -17.1944    56.1912    53.6911 </r>
       <r>   -17.1033     0.0000    54.0000 </r>
       <r>   -17.0121     0.0000    54.0000 </r>
       <r>   -16.9210     0.0000    54.0000 </r>
       <r>   -16.8299     0.0000    54.0000 </r>
       <r>   -16.7387     0.0000    54.0000 </r>
       <r>   -16.6476     0.0000    54.0000 </r>
       <r>   -16.5565     0.0000    54.0000 </r>
       <r>   -16.4653     0.0000    54.0000 </r>
       <r>   -16.3742    30.9531    56.8210 </r>
       <r>   -16.2830    28.0259    60.0000 </r>
       <r>   -16.1919     0.0000    60.0000 </r>
       <r>   -16.1008     0.0144    60.0013 </r>
       <r>   -16.0096    65.8204    66.0000 </r>
       <r>   -15.9185     0.0000    66.0000 </r>
       <r>   -15.8274     0.0000    66.0000 </r>
       <r>   -15.7362     0.0000    66.0000 </r>
       <r>   -15.6451     0.0000    66.0000 </r>
       <r>   -15.5539     0.0000    66.0000 </r>
       <r>   -15.4628     0.0000    66.0000 </r>
       <r>   -15.3717     0.0000    66.0000 </r>
       <r>   -15.2805    65.7750    71.9946 </r>
       <r>   -15.1894     0.0000    72.0000 </r>
       <r>   -15.0983     0.0125    72.0011 </r>
       <r>   -15.0071    30.3740    74.7693 </r>
       <r>   -14.9160     9.2964    75.6821 </r>
       <r>   -14.8248     6.6015    76.4021 </r>
       <r>   -14.7337     6.8840    77.1285 </r>
       <r>   -14.6426     2.6324    77.4074 </r>
       <r>   -14.5514     2.7450    77.6836 </r>
       <r>   -14.4603     2.9247    78.0000 </r>
       <r>   -14.3692     0.0000    78.0000 </r>
       <r>   -14.2780     0.1149    78.0105 </r>
       <r>   -14.1869    25.8723    80.3684 </r>
       <r>   -14.0957     2.3760    80.6177 </r>
       <r>   -14.0046     2.4328    80.8555 </r>
       <r>   -13.9135     5.2362    81.3443 </r>
       <r>   -13.8223     4.7829    81.9038 </r>
       <r>   -13.7312     4.6527    82.4241 </r>
       <r>   -13.6401     6.3000    83.0747 </r>
       <r>   -13.5489     2.2347    83.3370 </r>
       <r>   -13.4578     2.5622    83.6003 </r>
       <r>   -13.3666     4.0173    83.9997 </r>
       <r>   -13.2755     7.2796    84.6634 </r>
       <r>   -13.1844    53.1325    90.1806 </r>
       <r>   -13.0932    19.4631    92.5119 </r>
       <r>   -13.0021     3.6448    92.8989 </r>
       <r>   -12.9110    14.2183    94.2315 </r>
       <r>   -12.8198    16.3419    96.0000 </r>
       <r>   -12.7287     0.0000    96.0000 </r>
       <r>   -12.6375     0.0000    96.0000 </r>
       <r>   -12.5464     0.0000    96.0000 </r>
       <r>   -12.4553     0.0000    96.0000 </r>
       <r>   -12.3641     7.9998    96.7291 </r>
       <r>   -12.2730    39.8620   101.4431 </r>
       <r>   -12.1819     4.3595   102.0000 </r>
       <r>   -12.0907     0.0000   102.0000 </r>
       <r>   -11.9996     0.0000   102.0000 </r>
       <r>   -11.9085     0.2258   102.0206 </r>
       <r>   -11.8173    33.5664   105.0797 </r>
       <r>   -11.7262    13.5065   106.8399 </r>
       <r>   -11.6350     8.7370   108.0000 </r>
       <r>   -11.5439    21.2660   109.9381 </r>
       <r>   -11.4528    21.9441   112.0000 </r>
       <r>   -11.3616    19.9280   113.8162 </r>
       <r>   -11.2705    32.4166   118.0000 </r>
       <r>   -11.1794     0.0000   118.0000 </r>
       <r>   -11.0882     0.0000   118.0000 </r>
       <r>   -10.9971    22.0459   120.0092 </r>
       <r>   -10.9059    30.8900   122.8246 </r>
       <r>   -10.8148    14.1557   124.7725 </r>
       <r>   -10.7237    47.7449   129.9992 </r>
       <r>   -10.6325     0.0000   130.0000 </r>
       <r>   -10.5414     0.0000   130.0000 </r>
       <r>   -10.4503     0.0000   130.0000 </r>
       <r>   -10.3591     0.0001   130.0000 </r>
       <r>   -10.2680    70.1970   136.3976 </r>
       <r>   -10.1768    53.6577   142.0000 </r>
       <r>   -10.0857     0.0000   142.0000 </r>
       <r>    -9.9946     0.0000   142.0000 </r>
       <r>    -9.9034    65.8348   148.0000 </r>
       <r>    -9.8123    12.8573   149.1718 </r>
       <r>    -9.7212    43.8768   154.0000 </r>
       <r>    -9.6300     0.0000   154.0000 </r>
       <r>    -9.5389     0.0000   154.0000 </r>
       <r>    -9.4477    18.8381   155.7169 </r>
       <r>    -9.3566    42.6646   159.8893 </r>
       <r>    -9.2655    56.6695   165.5336 </r>
       <r>    -9.1743    47.8150   171.0597 </r>
       <r>    -9.0832    67.0003   179.7283 </r>
       <r>    -8.9921     0.0000   184.0000 </r>
       <r>    -8.9009     0.4640   184.0423 </r>
       <r>    -8.8098    58.3174   189.6640 </r>
       <r>    -8.7186    44.0746   193.8551 </r>
       <r>    -8.6275    32.8880   197.2390 </r>
       <r>    -8.5364    49.3201   202.0000 </r>
       <r>    -8.4452    65.8052   207.9973 </r>
       <r>    -8.3541     0.0000   208.0000 </r>
       <r>    -8.2630     0.0000   208.0000 </r>
       <r>    -8.1718     1.5912   208.1450 </r>
       <r>    -8.0807    59.6611   214.3422 </r>
       <r>    -7.9896     0.0000   216.0000 </r>
       <r>    -7.8984     0.0000   216.0000 </r>
       <r>    -7.8073    43.7948   219.9913 </r>
       <r>    -7.7161     8.5073   222.0000 </r>
       <r>    -7.6250    22.4152   224.0429 </r>
       <r>    -7.5339    46.1634   228.6867 </r>
       <r>    -7.4427    18.4399   231.5639 </r>
       <r>    -7.3516    25.9625   234.0000 </r>
       <r>    -7.2605     3.3310   234.3036 </r>
       <r>    -7.1693     3.3399   234.6711 </r>
       <r>    -7.0782     4.3319   235.0966 </r>
       <r>    -6.9870     7.3024   236.0007 </r>
       <r>    -6.8959    10.4638   236.9544 </r>
       <r>    -6.8048     3.4503   237.3481 </r>
       <r>    -6.7136     3.9532   237.7608 </r>
       <r>    -6.6225     1.7954   238.0000 </r>
       <r>    -6.5314     0.0000   238.0000 </r>
       <r>    -6.4402    25.3267   240.3082 </r>
       <r>    -6.3491     3.8439   240.7175 </r>
       <r>    -6.2579     8.0280   241.4991 </r>
       <r>    -6.1668     3.8075   242.0156 </r>
       <r>    -6.0757    12.1131   243.2415 </r>
       <r>    -5.9845    29.6003   245.9999 </r>
       <r>    -5.8934     0.0000   246.0000 </r>
       <r>    -5.8023     0.0000   246.0000 </r>
       <r>    -5.7111     0.0000   246.0000 </r>
       <r>    -5.6200     0.1089   246.0099 </r>
       <r>    -5.5288    22.9889   248.1051 </r>
       <r>    -5.4377    48.4442   253.1332 </r>
       <r>    -5.3466    18.2364   255.2320 </r>
       <r>    -5.2554     7.2873   256.0000 </r>
       <r>    -5.1643    65.8348   262.0000 </r>
       <r>    -5.0732     0.0000   262.0000 </r>
       <r>    -4.9820    31.0787   264.8324 </r>
       <r>    -4.8909    10.9118   266.0000 </r>
       <r>    -4.7997    42.5376   269.8768 </r>
       <r>    -4.7086     0.0000   270.0000 </r>
       <r>    -4.6175     0.0000   270.0000 </r>
       <r>    -4.5263     0.0000   270.0000 </r>
       <r>    -4.4352     0.0000   270.0000 </r>
       <r>    -4.3441     0.0000   270.0000 </r>
       <r>    -4.2529     0.0000   270.0000 </r>
       <r>    -4.1618     0.0000   270.0000 </r>
       <r>    -4.0707     0.0000   270.0000 </r>
       <r>    -3.9795     0.0000   270.0000 </r>
       <r>    -3.8884     0.0000   270.0000 </r>
       <r>    -3.7972     0.0000   270.0000 </r>
       <r>    -3.7061     0.0000   270.0000 </r>
       <r>    -3.6150     0.0000   270.0000 </r>
       <r>    -3.5238     0.0000   270.0000 </r>
       <r>    -3.4327     0.0000   270.0000 </r>
       <r>    -3.3416     0.0000   270.0000 </r>
       <r>    -3.2504     0.0000   270.0000 </r>
       <r>    -3.1593     0.0000   270.0000 </r>
       <r>    -3.0681     0.0000   270.0000 </r>
       <r>    -2.9770     0.0000   270.0000 </r>
       <r>    -2.8859     0.0000   270.0000 </r>
       <r>    -2.7947     0.0000   270.0000 </r>
       <r>    -2.7036     0.0000   270.0000 </r>
       <r>    -2.6125     0.0000   270.0000 </r>
       <r>    -2.5213     0.0000   270.0000 </r>
       <r>    -2.4302     0.0000   270.0000 </r>
       <r>    -2.3390     0.0001   270.0000 </r>
       <r>    -2.2479    35.4737   273.2330 </r>
       <r>    -2.1568    15.5900   274.9916 </r>
       <r>    -2.0656     7.1002   275.7487 </r>
       <r>    -1.9745     0.0000   276.0000 </r>
       <r>    -1.8834     0.0000   276.0000 </r>
       <r>    -1.7922     0.0000   276.0000 </r>
       <r>    -1.7011     0.0000   276.0000 </r>
       <r>    -1.6099    25.3148   278.3071 </r>
       <r>    -1.5188     4.6371   278.8244 </r>
       <r>    -1.4277    10.7101   279.8437 </r>
       <r>    -1.3365     4.6434   280.4232 </r>
       <r>    -1.2454     7.9995   281.3318 </r>
       <r>    -1.1543     6.5670   282.0000 </r>
       <r>    -1.0631     0.0000   282.0000 </r>
       <r>    -0.9720     0.0000   282.0000 </r>
       <r>    -0.8808     0.0000   282.0000 </r>
       <r>    -0.7897     0.0000   282.0000 </r>
       <r>    -0.6986     0.0000   282.0000 </r>
       <r>    -0.6074    65.8330   287.9998 </r>
       <r>    -0.5163     0.0000   288.0000 </r>
       <r>    -0.4252     0.0000   288.0000 </r>
       <r>    -0.3340     9.4781   288.8638 </r>
       <r>    -0.2429    53.8577   293.8780 </r>
       <r>    -0.1518    31.2258   296.8481 </r>
       <r>    -0.0606    23.8996   299.2794 </r>
       <r>     0.0305    22.7584   301.8181 </r>
       <r>     0.1217    23.9161   304.2856 </r>
       <r>     0.2128    44.0438   308.3836 </r>
       <r>     0.3039     5.3196   308.9851 </r>
       <r>     0.3951    41.5147   312.8861 </r>
       <r>     0.4862    41.1475   316.8259 </r>
       <r>     0.5773    35.8328   320.2340 </r>
       <r>     0.6685    37.8990   324.0241 </r>
       <r>     0.7596    60.2298   330.4687 </r>
       <r>     0.8508    44.5995   334.9129 </r>
       <r>     0.9419    46.3521   339.7263 </r>
       <r>     1.0330    59.7859   345.5549 </r>
       <r>     1.1242    49.2551   350.6968 </r>
       <r>     1.2153    46.1014   355.9838 </r>
       <r>     1.3064    67.7613   362.7857 </r>
       <r>     1.3976    48.6029   368.1414 </r>
       <r>     1.4887    65.0264   374.8743 </r>
       <r>     1.5799    54.6571   380.8638 </r>
       <r>     1.6710    24.8544   383.6492 </r>
       <r>     1.7621     3.2754   384.0000 </r>
       <r>     1.8533     0.0000   384.0000 </r>
       <r>     1.9444     0.0000   384.0000 </r>
       <r>     2.0355     0.0000   384.0000 </r>
       <r>     2.1267     0.0000   384.0000 </r>
       <r>     2.2178     0.0000   384.0000 </r>
       <r>     2.3090     0.0000   384.0000 </r>
       <r>     2.4001     0.0000   384.0000 </r>
       <r>     2.4912     0.0000   384.0000 </r>
       <r>     2.5824     0.0000   384.0000 </r>
       <r>     2.6735     0.0000   384.0000 </r>
       <r>     2.7646     0.0000   384.0000 </r>
       <r>     2.8558     0.0000   384.0000 </r>
       <r>     2.9469     0.0000   384.0000 </r>
      </set>
     </set>
    </array>
   </total>
  </dos>
 </calculation>
 <structure name="finalpos" >
  <crystal>
   <varray name="basis" >
    <v>      22.30221584      -0.01091041       0.00000000 </v>
    <v>     -11.16060956      19.27705453       0.00000000 </v>
    <v>       0.00000000       0.00000000      20.00000000 </v>
   </varray>
   <i name="volume">   8595.98527906 </i>
   <varray name="rec_basis" >
    <v>       0.04485130       0.02596703       0.00000000 </v>
    <v>       0.00002538       0.05188984       0.00000000 </v>
    <v>       0.00000000       0.00000000       0.05000000 </v>
   </varray>
  </crystal>
  <varray name="positions" >
   <v>       0.13288409       0.67992401       0.54247516 </v>
   <v>       0.08175148       0.68813330       0.47912082 </v>
   <v>       0.05144169       0.66996848       0.56243979 </v>
   <v>       0.18209080       0.64227584       0.47143256 </v>
   <v>       0.14754613       0.47900944       0.45992495 </v>
   <v>       0.10191644       0.41746018       0.52262243 </v>
   <v>       0.06979947       0.40125189       0.43947372 </v>
   <v>       0.97894400       0.33960592       0.51080556 </v>
   <v>       0.29466655       0.54225578       0.53657751 </v>
   <v>       0.26964610       0.72205122       0.53670543 </v>
   <v>       0.38895499       0.32378540       0.48956182 </v>
   <v>       0.33720925       0.44746115       0.54188458 </v>
   <v>       0.32947892       0.38759704       0.47917795 </v>
   <v>       0.34785505       0.37649785       0.56273002 </v>
   <v>       0.37460832       0.53468108       0.47101643 </v>
   <v>       0.38130004       0.03651923       0.51001022 </v>
   <v>       0.35344206       0.86857216       0.45978886 </v>
   <v>       0.33693547       0.91381586       0.52232837 </v>
   <v>       0.35297645       0.94598356       0.43918058 </v>
   <v>       0.47442111       0.74747369       0.53696493 </v>
   <v>       0.72525703       0.46556856       0.53885198 </v>
   <v>       0.55228741       0.25607985       0.53883304 </v>
   <v>       0.76136186       0.29259708       0.53877123 </v>
   <v>       0.69318870       0.06074635       0.49045569 </v>
   <v>       0.68976434       0.13893321       0.49181027 </v>
   <v>       0.68639012       0.09704552       0.56714271 </v>
   <v>       0.56949952       0.88517847       0.54240335 </v>
   <v>       0.62940862       0.93751634       0.47981568 </v>
   <v>       0.64036986       0.96695225       0.56339431 </v>
   <v>       0.48247389       0.83531793       0.47165597 </v>
   <v>       0.47051875       0.32734169       0.49188947 </v>
   <v>       0.43125116       0.33061989       0.56671826 </v>
   <v>       0.95791029       0.62912189       0.48944634 </v>
   <v>       0.87940338       0.54766375       0.49168657 </v>
   <v>       0.92197605       0.58686394       0.56657695 </v>
   <v>       0.45573662       0.11941454       0.51485238 </v>
   <v>       0.42481354       0.07952960       0.43590563 </v>
   <v>       0.55550124       0.17295859       0.46630545 </v>
   <v>       0.68523316       0.56199950       0.51506299 </v>
   <v>       0.67652425       0.59198416       0.43553202 </v>
   <v>       0.67709345       0.63646359       0.50892080 </v>
   <v>       0.53705819       0.66393624       0.45926615 </v>
   <v>       0.59874687       0.68054374       0.52188880 </v>
   <v>       0.61493792       0.66458970       0.43875977 </v>
   <v>       0.63876381       0.46177510       0.46594810 </v>
   <v>       0.89642924       0.33181148       0.51420340 </v>
   <v>       0.93734211       0.34051097       0.43592299 </v>
   <v>       0.84403637       0.37891468       0.46603413 </v>
   <v>       0.08520507       0.54923055       0.50184632 </v>
   <v>       0.04496981       0.58152009       0.51071765 </v>
   <v>       0.07972144       0.65865197       0.52419200 </v>
   <v>       0.16124373       0.59420345       0.50152269 </v>
   <v>       0.05351034       0.47674008       0.49186277 </v>
   <v>       0.09536634       0.44194768       0.47749424 </v>
   <v>       0.30251802       0.69886255       0.53331877 </v>
   <v>       0.27390677       0.62654643       0.53237265 </v>
   <v>       0.31787318       0.59843011       0.53324313 </v>
   <v>       0.37468681       0.74296309       0.53252664 </v>
   <v>       0.39011568       0.64221821       0.53242482 </v>
   <v>       0.35880611       0.41571173       0.52408568 </v>
   <v>       0.36820708       0.92068932       0.47731784 </v>
   <v>       0.41832299       0.71444826       0.53345417 </v>
   <v>       0.65432220       0.26618188       0.53457382 </v>
   <v>       0.72606885       0.31296871       0.53528629 </v>
   <v>       0.75148855       0.38475160       0.53459667 </v>
   <v>       0.70485461       0.40979299       0.53536222 </v>
   <v>       0.63313642       0.36332064       0.53465017 </v>
   <v>       0.60801157       0.29150094       0.53533539 </v>
   <v>       0.48597155       0.93201911       0.50205376 </v>
   <v>       0.55850238       0.97282498       0.51104999 </v>
   <v>       0.59120342       0.04567118       0.50959297 </v>
   <v>       0.66913844       0.08769693       0.51464524 </v>
   <v>       0.60125815       0.93866858       0.52467686 </v>
   <v>       0.45515489       0.85594358       0.50173772 </v>
   <v>       0.46769332       0.53121051       0.50152976 </v>
   <v>       0.43579930       0.45860592       0.51052676 </v>
   <v>       0.47585461       0.42595912       0.50916847 </v>
   <v>       0.43975595       0.34792740       0.51422740 </v>
   <v>       0.42250846       0.56194562       0.50125480 </v>
   <v>       0.97218206       0.54174279       0.50926942 </v>
   <v>       0.93079457       0.57826796       0.51412693 </v>
   <v>       0.54978271       0.07698500       0.50196348 </v>
   <v>       0.47701177       0.03596102       0.49358743 </v>
   <v>       0.44484121       0.96318043       0.49191738 </v>
   <v>       0.43280286       0.06972034       0.48830766 </v>
   <v>       0.58002339       0.15278558       0.50077529 </v>
   <v>       0.54865218       0.46754255       0.50161568 </v>
   <v>       0.58057730       0.54038385       0.49316196 </v>
   <v>       0.54005888       0.57249772       0.49142677 </v>
   <v>       0.65863268       0.58463605       0.48789185 </v>
   <v>       0.57434683       0.64923095       0.47685456 </v>
   <v>       0.59413074       0.43738046       0.50056664 </v>
   <v>       0.94033006       0.46880776       0.50179355 </v>
   <v>       0.98076963       0.43649088       0.49352386 </v>
   <v>       0.94646863       0.35831914       0.48834158 </v>
   <v>       0.86453616       0.42360777       0.50064373 </v>
   <v>       0.20217716       0.57958598       0.53362874 </v>
   <v>       0.39958789       0.81474209       0.53382710 </v>
   <v>       0.43693627       0.61741265       0.53357181 </v>
   <v>       0.63184780       0.19502232       0.53690498 </v>
   <v>       0.82263646       0.43341024       0.53695267 </v>
   <v>       0.58451708       0.38573709       0.53698210 </v>
  </varray>
 </structure>
</modeling>
