<?xml version="1.0" encoding="ISO-8859-1"?>
<modeling>
 <generator>
  <i name="program" type="string">vasp </i>
  <i name="version" type="string">5.4.4.18Apr17-6-g9f103f2a35  </i>
  <i name="subversion" type="string">(build Jun 07 2020 16:50:00) complex            parallel </i>
  <i name="platform" type="string">LinuxIFC </i>
  <i name="date" type="string">2023 02 28 </i>
  <i name="time" type="string">20:50:07 </i>
 </generator>
 <incar>
  <i type="string" name="SYSTEM">Simulation for cell shape cell volume r</i>
  <i type="int" name="ISTART">     1</i>
  <i type="string" name="PREC">high</i>
  <i type="string" name="ALGO">48</i>
  <i type="int" name="ICHARG">    11</i>
  <i type="int" name="NELM">   200</i>
  <i type="int" name="IBRION">    -1</i>
  <i name="EDIFF">      0.00001000</i>
  <i name="EDIFFG">     -0.01000000</i>
  <i type="int" name="NSW">     0</i>
  <i type="int" name="ISIF">     2</i>
  <i name="ENCUT">    500.00000000</i>
  <i name="POTIM">      0.30000000</i>
  <i type="string" name="LREAL">A</i>
  <i type="int" name="ISMEAR">     0</i>
  <i name="SIGMA">      0.01000000</i>
  <i type="int" name="NWRITE">     0</i>
  <i type="logical" name="LWAVE"> F  </i>
  <i type="logical" name="LCHARG"> F  </i>
  <v type="int" name="KPOINT_BSE">    -1     0     0     0</v>
  <i type="int" name="NELM">   200</i>
  <i type="string" name="GGA">PE</i>
 </incar>
 <structure name="primitive_cell" >
  <crystal>
   <varray name="basis" >
    <v>      30.37754464      -0.00176154       0.00000000 </v>
    <v>     -15.19030061      26.32308639       0.00000000 </v>
    <v>       0.00000000       0.00000000      20.00000000 </v>
   </varray>
   <i name="volume">  15992.07946707 </i>
   <varray name="rec_basis" >
    <v>       0.03292015       0.01899728       0.00000000 </v>
    <v>       0.00000220       0.03799074       0.00000000 </v>
    <v>       0.00000000       0.00000000       0.05000000 </v>
   </varray>
  </crystal>
  <varray name="positions" >
   <v>       0.04392350      -0.48049637      -0.42426554 </v>
   <v>      -0.00696341       0.49372391      -0.42499948 </v>
   <v>       0.06716020      -0.46868099      -0.48417249 </v>
   <v>      -0.02604366       0.48399270      -0.37637098 </v>
   <v>       0.04394659      -0.48034822       0.45591498 </v>
   <v>      -0.03539396       0.47936941      -0.48424435 </v>
   <v>       0.12396605      -0.43993364      -0.48422449 </v>
   <v>      -0.00692505       0.49385842       0.45655612 </v>
   <v>       0.14987247      -0.38668331      -0.48424765 </v>
   <v>       0.15063006      -0.46656168      -0.48430997 </v>
   <v>       0.12982838       0.49198756      -0.48438287 </v>
   <v>       0.12859797      -0.36651935      -0.48426925 </v>
   <v>      -0.09179280       0.45076254      -0.48430304 </v>
   <v>      -0.02595541       0.48421992       0.40788173 </v>
   <v>      -0.09788670      -0.48127499      -0.48434065 </v>
   <v>      -0.09679361       0.37714595      -0.48430714 </v>
   <v>       0.20290172      -0.35981328      -0.48423895 </v>
   <v>       0.20380287      -0.43987195      -0.48427703 </v>
   <v>      -0.11871086       0.47727328      -0.48436338 </v>
   <v>      -0.11801472       0.39737337      -0.48432585 </v>
   <v>       0.22919373      -0.38665437      -0.48420479 </v>
   <v>       0.23783165      -0.46192101      -0.48428985 </v>
   <v>       0.23716138      -0.30341063      -0.48425274 </v>
   <v>      -0.17104225       0.37056524      -0.48440681 </v>
   <v>      -0.17187056       0.45062157      -0.48441123 </v>
   <v>       0.24167201      -0.47001686      -0.37667727 </v>
   <v>       0.27068755      -0.36564181      -0.48417422 </v>
   <v>       0.25466719      -0.28112710      -0.42460186 </v>
   <v>       0.25909142      -0.46816604      -0.42524919 </v>
   <v>      -0.19732405       0.39741077      -0.48443985 </v>
   <v>       0.25466287      -0.28112538       0.45609929 </v>
   <v>       0.24113875      -0.47070955       0.40815838 </v>
   <v>       0.25879445      -0.46855487       0.45664149 </v>
   <v>      -0.20584644       0.47269957      -0.48434777 </v>
   <v>      -0.20531243       0.31417632      -0.48441863 </v>
   <v>      -0.20968971       0.48058789      -0.37666464 </v>
   <v>      -0.23881764       0.37642414      -0.48449929 </v>
   <v>       0.29939392      -0.23764175      -0.42518808 </v>
   <v>      -0.22273600       0.29195308      -0.42475107 </v>
   <v>      -0.22710901       0.47878877      -0.42521262 </v>
   <v>       0.30254933      -0.46949580      -0.42476668 </v>
   <v>      -0.20935162       0.48128730       0.40807236 </v>
   <v>       0.29936562      -0.23761019       0.45667640 </v>
   <v>      -0.22286545       0.29196226       0.45593677 </v>
   <v>      -0.22693078       0.47916852       0.45660332 </v>
   <v>       0.30225501      -0.46987883       0.45597962 </v>
   <v>       0.31497791      -0.22015652      -0.37665761 </v>
   <v>       0.32471737      -0.46490989      -0.48444860 </v>
   <v>       0.32687379      -0.21646707      -0.48426037 </v>
   <v>       0.31488053      -0.22005805       0.40815438 </v>
   <v>      -0.26739821       0.24839722      -0.42527209 </v>
   <v>      -0.27067296       0.47989002      -0.42464116 </v>
   <v>      -0.26746402       0.24835722       0.45653334 </v>
   <v>       0.38679595      -0.36921767      -0.48443035 </v>
   <v>      -0.27050142       0.48026365       0.45606195 </v>
   <v>       0.39034805      -0.24928812      -0.48461205 </v>
   <v>      -0.28294992       0.23095729      -0.37670618 </v>
   <v>      -0.29285793       0.47525782      -0.48431165 </v>
   <v>      -0.29485075       0.22714351      -0.48433684 </v>
   <v>       0.38117610      -0.44270175      -0.48451830 </v>
   <v>       0.38293974      -0.18244001      -0.48424214 </v>
   <v>      -0.28299888       0.23084537       0.40799924 </v>
   <v>       0.40792378      -0.38958108      -0.48444916 </v>
   <v>       0.41080477      -0.20780901      -0.48447561 </v>
   <v>      -0.35511997       0.37940774      -0.48416281 </v>
   <v>      -0.35826492       0.25995696      -0.48441223 </v>
   <v>       0.40820010      -0.46870661      -0.48451797 </v>
   <v>       0.40938442      -0.12930228      -0.48394263 </v>
   <v>       0.38871470      -0.10851132      -0.48383828 </v>
   <v>       0.38814474       0.48987423      -0.48451218 </v>
   <v>      -0.34929679       0.45300097      -0.48437457 </v>
   <v>      -0.35089869       0.19308949      -0.48428225 </v>
   <v>       0.46116187      -0.36163775      -0.48442782 </v>
   <v>       0.46394329      -0.18152800      -0.48446709 </v>
   <v>      -0.37613408       0.39988360      -0.48429012 </v>
   <v>      -0.37873635       0.21848249      -0.48433643 </v>
   <v>       0.48314197      -0.30560304      -0.48443854 </v>
   <v>       0.48955951      -0.27804679      -0.42541403 </v>
   <v>       0.48608636      -0.21581342      -0.48456652 </v>
   <v>       0.49088843      -0.23327697      -0.42490518 </v>
   <v>       0.49150934      -0.29356904      -0.37685682 </v>
   <v>       0.48950922      -0.27814992       0.45645497 </v>
   <v>       0.49079417      -0.23341100       0.45581345 </v>
   <v>       0.46147926      -0.44122895      -0.48450592 </v>
   <v>       0.46267581      -0.10264565      -0.48385827 </v>
   <v>      -0.35594467      -0.47940841      -0.48460311 </v>
   <v>      -0.35666168       0.11915791      -0.48412552 </v>
   <v>      -0.37615568       0.47915763      -0.48451317 </v>
   <v>      -0.37733846       0.13994750      -0.48417239 </v>
   <v>       0.49144357      -0.29373890       0.40794387 </v>
   <v>       0.48798956      -0.38796775      -0.48449017 </v>
   <v>       0.49007265      -0.12851963      -0.48414197 </v>
   <v>      -0.42937709       0.37208078      -0.48440355 </v>
   <v>      -0.43186977       0.19219241      -0.48429740 </v>
   <v>      -0.45141805       0.31602962      -0.48437493 </v>
   <v>      -0.45761334       0.28863289      -0.42525728 </v>
   <v>      -0.45407587       0.22641168      -0.48430323 </v>
   <v>      -0.45873564       0.24397761      -0.42467232 </v>
   <v>      -0.45954988       0.30418703      -0.37672197 </v>
   <v>      -0.47054268      -0.36723030      -0.48453170 </v>
   <v>      -0.45780873       0.28849037       0.45658027 </v>
   <v>       0.49040156      -0.46910007      -0.48451017 </v>
   <v>       0.49064477      -0.04587153      -0.48377000 </v>
   <v>      -0.45896801       0.24380508       0.45605339 </v>
   <v>      -0.46848444      -0.10724743      -0.48411288 </v>
   <v>      -0.42956689       0.45197650      -0.48453151 </v>
   <v>      -0.43077604       0.11301418      -0.48414217 </v>
   <v>      -0.45985390       0.30395973       0.40803051 </v>
   <v>      -0.45607136       0.39856000      -0.48449557 </v>
   <v>      -0.45800802       0.13919276      -0.48421386 </v>
   <v>      -0.49788597      -0.02259274      -0.42389066 </v>
   <v>      -0.49783708      -0.48056898      -0.42461115 </v>
   <v>      -0.49796997      -0.02273305       0.45628202 </v>
   <v>      -0.49772635      -0.48043891       0.45557769 </v>
   <v>      -0.45802582       0.47991658      -0.48455037 </v>
   <v>      -0.45860930       0.05663628      -0.48403035 </v>
   <v>      -0.49754123       0.37791050      -0.48453147 </v>
   <v>      -0.49945940       0.11794696      -0.48418174 </v>
   <v>      -0.46255238       0.48477073      -0.37667843 </v>
   <v>      -0.46334806       0.04738377      -0.37613531 </v>
   <v>      -0.47270763       0.02827174      -0.42473296 </v>
   <v>      -0.47225358       0.49413462      -0.42531846 </v>
   <v>      -0.46236981       0.48500485       0.40757641 </v>
   <v>      -0.47278886       0.02812671       0.45681720 </v>
   <v>      -0.47214637       0.49426135       0.45624447 </v>
   <v>      -0.46350097       0.04707271       0.40808921 </v>
  </varray>
 </structure>
 <varray name="primitive_index" >
  <v type="int" >        1 </v>
  <v type="int" >       64 </v>
  <v type="int" >       22 </v>
  <v type="int" >      113 </v>
  <v type="int" >        2 </v>
  <v type="int" >       65 </v>
  <v type="int" >       20 </v>
  <v type="int" >       78 </v>
  <v type="int" >       21 </v>
  <v type="int" >       19 </v>
  <v type="int" >       91 </v>
  <v type="int" >       92 </v>
  <v type="int" >       50 </v>
  <v type="int" >      120 </v>
  <v type="int" >      104 </v>
  <v type="int" >      105 </v>
  <v type="int" >       23 </v>
  <v type="int" >       25 </v>
  <v type="int" >       49 </v>
  <v type="int" >       51 </v>
  <v type="int" >       24 </v>
  <v type="int" >       31 </v>
  <v type="int" >       27 </v>
  <v type="int" >       46 </v>
  <v type="int" >       48 </v>
  <v type="int" >       94 </v>
  <v type="int" >       93 </v>
  <v type="int" >        3 </v>
  <v type="int" >       28 </v>
  <v type="int" >       47 </v>
  <v type="int" >        5 </v>
  <v type="int" >       95 </v>
  <v type="int" >       30 </v>
  <v type="int" >       90 </v>
  <v type="int" >       73 </v>
  <v type="int" >      119 </v>
  <v type="int" >      106 </v>
  <v type="int" >       26 </v>
  <v type="int" >       10 </v>
  <v type="int" >       76 </v>
  <v type="int" >        4 </v>
  <v type="int" >      126 </v>
  <v type="int" >       29 </v>
  <v type="int" >       16 </v>
  <v type="int" >       89 </v>
  <v type="int" >        6 </v>
  <v type="int" >       96 </v>
  <v type="int" >       32 </v>
  <v type="int" >       33 </v>
  <v type="int" >       97 </v>
  <v type="int" >       72 </v>
  <v type="int" >       12 </v>
  <v type="int" >       85 </v>
  <v type="int" >      103 </v>
  <v type="int" >       18 </v>
  <v type="int" >      100 </v>
  <v type="int" >      117 </v>
  <v type="int" >       77 </v>
  <v type="int" >       86 </v>
  <v type="int" >       40 </v>
  <v type="int" >       36 </v>
  <v type="int" >      124 </v>
  <v type="int" >       41 </v>
  <v type="int" >       35 </v>
  <v type="int" >      112 </v>
  <v type="int" >      109 </v>
  <v type="int" >       45 </v>
  <v type="int" >       37 </v>
  <v type="int" >       98 </v>
  <v type="int" >      102 </v>
  <v type="int" >       58 </v>
  <v type="int" >       54 </v>
  <v type="int" >       42 </v>
  <v type="int" >       34 </v>
  <v type="int" >       59 </v>
  <v type="int" >       53 </v>
  <v type="int" >       84 </v>
  <v type="int" >       70 </v>
  <v type="int" >       71 </v>
  <v type="int" >        9 </v>
  <v type="int" >      116 </v>
  <v type="int" >       83 </v>
  <v type="int" >       15 </v>
  <v type="int" >       44 </v>
  <v type="int" >       38 </v>
  <v type="int" >      111 </v>
  <v type="int" >      107 </v>
  <v type="int" >       63 </v>
  <v type="int" >       55 </v>
  <v type="int" >      123 </v>
  <v type="int" >       43 </v>
  <v type="int" >       39 </v>
  <v type="int" >       60 </v>
  <v type="int" >       52 </v>
  <v type="int" >       88 </v>
  <v type="int" >       74 </v>
  <v type="int" >       75 </v>
  <v type="int" >       11 </v>
  <v type="int" >      118 </v>
  <v type="int" >      101 </v>
  <v type="int" >       87 </v>
  <v type="int" >       82 </v>
  <v type="int" >       80 </v>
  <v type="int" >       17 </v>
  <v type="int" >       99 </v>
  <v type="int" >       62 </v>
  <v type="int" >       56 </v>
  <v type="int" >      125 </v>
  <v type="int" >       61 </v>
  <v type="int" >       57 </v>
  <v type="int" >        7 </v>
  <v type="int" >        8 </v>
  <v type="int" >       13 </v>
  <v type="int" >       14 </v>
  <v type="int" >       69 </v>
  <v type="int" >       67 </v>
  <v type="int" >      110 </v>
  <v type="int" >      108 </v>
  <v type="int" >      115 </v>
  <v type="int" >      114 </v>
  <v type="int" >       66 </v>
  <v type="int" >       68 </v>
  <v type="int" >      122 </v>
  <v type="int" >       79 </v>
  <v type="int" >       81 </v>
  <v type="int" >      121 </v>
 </varray>
 <kpoints>
  <generation param="listgenerated">
   <i name="divisions" type="int">      20 </i>
   <v>       0.00000000       0.00000000       0.00000000 </v>
   <v>       0.50000000       0.00000000       0.00000000 </v>
   <v>       0.33333333       0.33333333       0.00000000 </v>
   <v>       0.00000000       0.00000000       0.00000000 </v>
  </generation>
  <varray name="kpointlist" >
   <v>       0.00000000       0.00000000       0.00000000 </v>
   <v>       0.02631579       0.00000000       0.00000000 </v>
   <v>       0.05263158       0.00000000       0.00000000 </v>
   <v>       0.07894737       0.00000000       0.00000000 </v>
   <v>       0.10526316       0.00000000       0.00000000 </v>
   <v>       0.13157895       0.00000000       0.00000000 </v>
   <v>       0.15789474       0.00000000       0.00000000 </v>
   <v>       0.18421053       0.00000000       0.00000000 </v>
   <v>       0.21052632       0.00000000       0.00000000 </v>
   <v>       0.23684211       0.00000000       0.00000000 </v>
   <v>       0.26315789       0.00000000       0.00000000 </v>
   <v>       0.28947368       0.00000000       0.00000000 </v>
   <v>       0.31578947       0.00000000       0.00000000 </v>
   <v>       0.34210526       0.00000000       0.00000000 </v>
   <v>       0.36842105       0.00000000       0.00000000 </v>
   <v>       0.39473684       0.00000000       0.00000000 </v>
   <v>       0.42105263       0.00000000       0.00000000 </v>
   <v>       0.44736842       0.00000000       0.00000000 </v>
   <v>       0.47368421       0.00000000       0.00000000 </v>
   <v>       0.50000000       0.00000000       0.00000000 </v>
   <v>       0.50000000       0.00000000       0.00000000 </v>
   <v>       0.49122807       0.01754386       0.00000000 </v>
   <v>       0.48245614       0.03508772       0.00000000 </v>
   <v>       0.47368421       0.05263158       0.00000000 </v>
   <v>       0.46491228       0.07017544       0.00000000 </v>
   <v>       0.45614035       0.08771930       0.00000000 </v>
   <v>       0.44736842       0.10526316       0.00000000 </v>
   <v>       0.43859649       0.12280702       0.00000000 </v>
   <v>       0.42982456       0.14035088       0.00000000 </v>
   <v>       0.42105263       0.15789474       0.00000000 </v>
   <v>       0.41228070       0.17543860       0.00000000 </v>
   <v>       0.40350877       0.19298246       0.00000000 </v>
   <v>       0.39473684       0.21052632       0.00000000 </v>
   <v>       0.38596491       0.22807018       0.00000000 </v>
   <v>       0.37719298       0.24561404       0.00000000 </v>
   <v>       0.36842105       0.26315789       0.00000000 </v>
   <v>       0.35964912       0.28070175       0.00000000 </v>
   <v>       0.35087719       0.29824561       0.00000000 </v>
   <v>       0.34210526       0.31578947       0.00000000 </v>
   <v>       0.33333333       0.33333333       0.00000000 </v>
   <v>       0.33333333       0.33333333       0.00000000 </v>
   <v>       0.31578947       0.31578947       0.00000000 </v>
   <v>       0.29824561       0.29824561       0.00000000 </v>
   <v>       0.28070175       0.28070175       0.00000000 </v>
   <v>       0.26315789       0.26315789       0.00000000 </v>
   <v>       0.24561404       0.24561404       0.00000000 </v>
   <v>       0.22807018       0.22807018       0.00000000 </v>
   <v>       0.21052632       0.21052632       0.00000000 </v>
   <v>       0.19298246       0.19298246       0.00000000 </v>
   <v>       0.17543860       0.17543860       0.00000000 </v>
   <v>       0.15789474       0.15789474       0.00000000 </v>
   <v>       0.14035088       0.14035088       0.00000000 </v>
   <v>       0.12280702       0.12280702       0.00000000 </v>
   <v>       0.10526316       0.10526316       0.00000000 </v>
   <v>       0.08771930       0.08771930       0.00000000 </v>
   <v>       0.07017544       0.07017544       0.00000000 </v>
   <v>       0.05263158       0.05263158       0.00000000 </v>
   <v>       0.03508772       0.03508772       0.00000000 </v>
   <v>       0.01754386       0.01754386       0.00000000 </v>
   <v>       0.00000000       0.00000000       0.00000000 </v>
  </varray>
  <varray name="weights" >
   <v>       0.01666667 </v>
   <v>       0.01666667 </v>
   <v>       0.01666667 </v>
   <v>       0.01666667 </v>
   <v>       0.01666667 </v>
   <v>       0.01666667 </v>
   <v>       0.01666667 </v>
   <v>       0.01666667 </v>
   <v>       0.01666667 </v>
   <v>       0.01666667 </v>
   <v>       0.01666667 </v>
   <v>       0.01666667 </v>
   <v>       0.01666667 </v>
   <v>       0.01666667 </v>
   <v>       0.01666667 </v>
   <v>       0.01666667 </v>
   <v>       0.01666667 </v>
   <v>       0.01666667 </v>
   <v>       0.01666667 </v>
   <v>       0.01666667 </v>
   <v>       0.01666667 </v>
   <v>       0.01666667 </v>
   <v>       0.01666667 </v>
   <v>       0.01666667 </v>
   <v>       0.01666667 </v>
   <v>       0.01666667 </v>
   <v>       0.01666667 </v>
   <v>       0.01666667 </v>
   <v>       0.01666667 </v>
   <v>       0.01666667 </v>
   <v>       0.01666667 </v>
   <v>       0.01666667 </v>
   <v>       0.01666667 </v>
   <v>       0.01666667 </v>
   <v>       0.01666667 </v>
   <v>       0.01666667 </v>
   <v>       0.01666667 </v>
   <v>       0.01666667 </v>
   <v>       0.01666667 </v>
   <v>       0.01666667 </v>
   <v>       0.01666667 </v>
   <v>       0.01666667 </v>
   <v>       0.01666667 </v>
   <v>       0.01666667 </v>
   <v>       0.01666667 </v>
   <v>       0.01666667 </v>
   <v>       0.01666667 </v>
   <v>       0.01666667 </v>
   <v>       0.01666667 </v>
   <v>       0.01666667 </v>
   <v>       0.01666667 </v>
   <v>       0.01666667 </v>
   <v>       0.01666667 </v>
   <v>       0.01666667 </v>
   <v>       0.01666667 </v>
   <v>       0.01666667 </v>
   <v>       0.01666667 </v>
   <v>       0.01666667 </v>
   <v>       0.01666667 </v>
   <v>       0.01666667 </v>
  </varray>
 </kpoints>
 <parameters>
  <separator name="general" >
   <i type="string" name="SYSTEM">Simulation for cell shape cell volume r</i>
   <i type="logical" name="LCOMPAT"> F  </i>
  </separator>
  <separator name="electronic" >
   <i type="string" name="PREC">high</i>
   <i name="ENMAX">    500.00000000</i>
   <i name="ENAUG">    644.87300000</i>
   <i name="EDIFF">      0.00001000</i>
   <i type="int" name="IALGO">    38</i>
   <i type="int" name="IWAVPR">    10</i>
   <i type="int" name="NBANDS">   272</i>
   <i name="NELECT">    414.00000000</i>
   <i type="int" name="TURBO">     0</i>
   <i type="int" name="IRESTART">     0</i>
   <i type="int" name="NREBOOT">     0</i>
   <i type="int" name="NMIN">     0</i>
   <i name="EREF">      0.00000000</i>
   <separator name="electronic smearing" >
    <i type="int" name="ISMEAR">     0</i>
    <i name="SIGMA">      0.01000000</i>
    <i name="KSPACING">      0.50000000</i>
    <i type="logical" name="KGAMMA"> T  </i>
   </separator>
   <separator name="electronic projectors" >
    <i type="logical" name="LREAL"> T  </i>
    <v name="ROPT">     -0.00040000     -0.00040000     -0.00040000</v>
    <i type="int" name="LMAXPAW">  -100</i>
    <i type="int" name="LMAXMIX">     2</i>
    <i type="logical" name="NLSPLINE"> F  </i>
   </separator>
   <separator name="electronic startup" >
    <i type="int" name="ISTART">     1</i>
    <i type="int" name="ICHARG">    11</i>
    <i type="int" name="INIWAV">     1</i>
   </separator>
   <separator name="electronic spin" >
    <i type="int" name="ISPIN">     1</i>
    <i type="logical" name="LNONCOLLINEAR"> F  </i>
    <v name="MAGMOM">      1.00000000      1.00000000      1.00000000      1.00000000      1.00000000      1.00000000      1.00000000      1.00000000      1.00000000      1.00000000      1.00000000      1.00000000      1.00000000      1.00000000      1.00000000      1.00000000      1.00000000      1.00000000      1.00000000      1.00000000
      1.00000000      1.00000000      1.00000000      1.00000000      1.00000000      1.00000000      1.00000000      1.00000000      1.00000000      1.00000000      1.00000000      1.00000000      1.00000000      1.00000000      1.00000000      1.00000000      1.00000000      1.00000000      1.00000000      1.00000000
      1.00000000      1.00000000      1.00000000      1.00000000      1.00000000      1.00000000      1.00000000      1.00000000      1.00000000      1.00000000      1.00000000      1.00000000      1.00000000      1.00000000      1.00000000      1.00000000      1.00000000      1.00000000      1.00000000      1.00000000
      1.00000000      1.00000000      1.00000000      1.00000000      1.00000000      1.00000000      1.00000000      1.00000000      1.00000000      1.00000000      1.00000000      1.00000000      1.00000000      1.00000000      1.00000000      1.00000000      1.00000000      1.00000000      1.00000000      1.00000000
      1.00000000      1.00000000      1.00000000      1.00000000      1.00000000      1.00000000      1.00000000      1.00000000      1.00000000      1.00000000      1.00000000      1.00000000      1.00000000      1.00000000      1.00000000      1.00000000      1.00000000      1.00000000      1.00000000      1.00000000
      1.00000000      1.00000000      1.00000000      1.00000000      1.00000000      1.00000000      1.00000000      1.00000000      1.00000000      1.00000000      1.00000000      1.00000000      1.00000000      1.00000000      1.00000000      1.00000000      1.00000000      1.00000000      1.00000000      1.00000000
      1.00000000      1.00000000      1.00000000      1.00000000      1.00000000      1.00000000</v>
    <i name="NUPDOWN">     -1.00000000</i>
    <i type="logical" name="LSORBIT"> F  </i>
    <v name="SAXIS">      0.00000000      0.00000000      1.00000000</v>
    <i type="logical" name="LSPIRAL"> F  </i>
    <v name="QSPIRAL">      0.00000000      0.00000000      0.00000000</v>
    <i type="logical" name="LZEROZ"> F  </i>
   </separator>
   <separator name="electronic exchange-correlation" >
    <i type="logical" name="LASPH"> F  </i>
    <i type="logical" name="LMETAGGA"> F  </i>
   </separator>
   <separator name="electronic convergence" >
    <i type="int" name="NELM">   200</i>
    <i type="int" name="NELMDL">     0</i>
    <i type="int" name="NELMIN">     2</i>
    <i name="ENINI">    500.00000000</i>
    <separator name="electronic convergence detail" >
     <i type="logical" name="LDIAG"> T  </i>
     <i type="logical" name="LSUBROT"> F  </i>
     <i name="WEIMIN">      0.00000000</i>
     <i name="EBREAK">      0.00000001</i>
     <i name="DEPER">      0.30000000</i>
     <i type="int" name="NRMM">     4</i>
     <i name="TIME">      0.40000000</i>
    </separator>
   </separator>
   <separator name="electronic mixer" >
    <i name="AMIX">      0.40000000</i>
    <i name="BMIX">      1.00000000</i>
    <i name="AMIN">      0.10000000</i>
    <i name="AMIX_MAG">      1.60000000</i>
    <i name="BMIX_MAG">      1.00000000</i>
    <separator name="electronic mixer details" >
     <i type="int" name="IMIX">     4</i>
     <i type="logical" name="MIXFIRST"> F  </i>
     <i type="int" name="MAXMIX">   -45</i>
     <i name="WC">    100.00000000</i>
     <i type="int" name="INIMIX">     1</i>
     <i type="int" name="MIXPRE">     1</i>
     <i type="int" name="MREMOVE">     5</i>
    </separator>
   </separator>
   <separator name="electronic dipolcorrection" >
    <i type="logical" name="LDIPOL"> F  </i>
    <i type="logical" name="LMONO"> F  </i>
    <i type="int" name="IDIPOL">     0</i>
    <i name="EPSILON">      1.00000000</i>
    <v name="DIPOL">   -100.00000000   -100.00000000   -100.00000000</v>
    <i name="EFIELD">      0.00000000</i>
   </separator>
  </separator>
  <separator name="grids" >
   <i type="int" name="NGX">   224</i>
   <i type="int" name="NGY">   224</i>
   <i type="int" name="NGZ">   150</i>
   <i type="int" name="NGXF">   336</i>
   <i type="int" name="NGYF">   336</i>
   <i type="int" name="NGZF">   224</i>
   <i type="logical" name="ADDGRID"> F  </i>
  </separator>
  <separator name="ionic" >
   <i type="int" name="NSW">     0</i>
   <i type="int" name="IBRION">    -1</i>
   <i type="int" name="MDALGO">     0</i>
   <i type="int" name="ISIF">     2</i>
   <i name="PSTRESS">      0.00000000</i>
   <i name="EDIFFG">     -0.01000000</i>
   <i type="int" name="NFREE">     0</i>
   <i name="POTIM">      0.30000000</i>
   <i name="SMASS">     -3.00000000</i>
   <i name="SCALEE">      1.00000000</i>
  </separator>
  <separator name="ionic md" >
   <i name="TEBEG">      0.00010000</i>
   <i name="TEEND">      0.00010000</i>
   <i type="int" name="NBLOCK">     1</i>
   <i type="int" name="KBLOCK">     1</i>
   <i type="int" name="NPACO">   256</i>
   <i name="APACO">     16.00000000</i>
  </separator>
  <separator name="symmetry" >
   <i type="int" name="ISYM">     2</i>
   <i name="SYMPREC">      0.00001000</i>
  </separator>
  <separator name="dos" >
   <i type="int" name="LORBIT">     0</i>
   <v name="RWIGS">     -1.00000000     -1.00000000     -1.00000000</v>
   <i type="int" name="NEDOS">   301</i>
   <i name="EMIN">     10.00000000</i>
   <i name="EMAX">    -10.00000000</i>
   <i name="EFERMI">      0.00000000</i>
  </separator>
  <separator name="writing" >
   <i type="int" name="NWRITE">     0</i>
   <i type="logical" name="LWAVE"> F  </i>
   <i type="logical" name="LDOWNSAMPLE"> F  </i>
   <i type="logical" name="LCHARG"> F  </i>
   <i type="logical" name="LPARD"> F  </i>
   <i type="logical" name="LVTOT"> F  </i>
   <i type="logical" name="LVHAR"> F  </i>
   <i type="logical" name="LELF"> F  </i>
   <i type="logical" name="LOPTICS"> F  </i>
   <v name="STM">      0.00000000      0.00000000      0.00000000      0.00000000      0.00000000      0.00000000      0.00000000</v>
  </separator>
  <separator name="performance" >
   <i type="int" name="NPAR">    16</i>
   <i type="int" name="NSIM">     4</i>
   <i type="int" name="NBLK">    -1</i>
   <i type="logical" name="LPLANE"> T  </i>
   <i type="logical" name="LSCALAPACK"> T  </i>
   <i type="logical" name="LSCAAWARE"> F  </i>
   <i type="logical" name="LSCALU"> F  </i>
   <i type="logical" name="LASYNC"> F  </i>
   <i type="logical" name="LORBITALREAL"> F  </i>
  </separator>
  <separator name="miscellaneous" >
   <i type="int" name="IDIOT">     3</i>
   <i type="int" name="ISPECIAL">     0</i>
   <i type="logical" name="LMUSIC"> F  </i>
   <v name="POMASS">     14.00100000     12.01100000      1.00000000</v>
   <v name="DARWINR">      0.00000000      0.00000000      0.00000000</v>
   <v name="DARWINV">      1.00000000      1.00000000      1.00000000</v>
   <i type="logical" name="LCORR"> T  </i>
  </separator>
  <i type="logical" name="GGA_COMPAT"> T  </i>
  <i type="logical" name="LBERRY"> F  </i>
  <i type="int" name="ICORELEVEL">     0</i>
  <i type="logical" name="LDAU"> F  </i>
  <i type="int" name="I_CONSTRAINED_M">     0</i>
  <separator name="electronic exchange-correlation" >
   <i type="string" name="GGA">PE</i>
   <i type="int" name="VOSKOWN">     0</i>
   <i type="logical" name="LHFCALC"> F  </i>
   <i type="string" name="PRECFOCK"></i>
   <i type="logical" name="LSYMGRAD"> F  </i>
   <i type="logical" name="LHFONE"> F  </i>
   <i type="logical" name="LRHFCALC"> F  </i>
   <i type="logical" name="LTHOMAS"> F  </i>
   <i type="logical" name="LMODELHF"> F  </i>
   <i name="ENCUT4O">     -1.00000000</i>
   <i type="int" name="EXXOEP">     0</i>
   <i type="int" name="FOURORBIT">     0</i>
   <i name="AEXX">      0.00000000</i>
   <i name="HFALPHA">      0.00000000</i>
   <i name="MCALPHA">      0.00000000</i>
   <i name="ALDAX">      1.00000000</i>
   <i name="AGGAX">      1.00000000</i>
   <i name="ALDAC">      1.00000000</i>
   <i name="AGGAC">      1.00000000</i>
   <i type="int" name="NKREDX">     1</i>
   <i type="int" name="NKREDY">     1</i>
   <i type="int" name="NKREDZ">     1</i>
   <i type="logical" name="SHIFTRED"> F  </i>
   <i type="logical" name="ODDONLY"> F  </i>
   <i type="logical" name="EVENONLY"> F  </i>
   <i type="int" name="LMAXFOCK">     0</i>
   <i type="int" name="NMAXFOCKAE">     0</i>
   <i type="logical" name="LFOCKAEDFT"> F  </i>
   <i name="HFSCREEN">      0.00000000</i>
   <i name="HFSCREENC">      0.00000000</i>
   <i type="int" name="NBANDSGWLOW">     0</i>
  </separator>
  <separator name="vdW DFT" >
   <i type="logical" name="LUSE_VDW"> F  </i>
   <i name="Zab_VDW">     -0.84910000</i>
   <i name="PARAM1">      0.12340000</i>
   <i name="PARAM2">      1.00000000</i>
   <i name="PARAM3">      0.00000000</i>
  </separator>
  <separator name="model GW" >
   <i type="int" name="MODEL_GW">     0</i>
   <i name="MODEL_EPS0">     76.15275937</i>
   <i name="MODEL_ALPHA">      1.00000000</i>
  </separator>
  <separator name="linear response parameters" >
   <i type="logical" name="LEPSILON"> F  </i>
   <i type="logical" name="LRPA"> F  </i>
   <i type="logical" name="LNABLA"> F  </i>
   <i type="logical" name="LVEL"> F  </i>
   <i type="int" name="KINTER">     0</i>
   <i name="CSHIFT">      0.10000000</i>
   <i name="OMEGAMAX">     -1.00000000</i>
   <i name="DEG_THRESHOLD">      0.00200000</i>
   <i name="RTIME">     -0.10000000</i>
   <i name="WPLASMAI">      0.00000000</i>
   <v name="DFIELD">      0.00000000      0.00000000      0.00000000</v>
   <v name="WPLASMA">      0.00000000      0.00000000      0.00000000      0.00000000      0.00000000      0.00000000      0.00000000      0.00000000      0.00000000</v>
  </separator>
  <separator name="orbital magnetization" >
   <i type="logical" name="NUCIND"> F  </i>
   <v name="MAGPOS">      0.00000000      0.00000000      0.00000000</v>
   <i type="logical" name="LNICSALL"> T  </i>
   <i type="logical" name="ORBITALMAG"> F  </i>
   <i type="logical" name="LMAGBLOCH"> F  </i>
   <i type="logical" name="LCHIMAG"> F  </i>
   <i type="logical" name="LGAUGE"> T  </i>
   <i type="int" name="MAGATOM">     0</i>
   <v name="MAGDIPOL">      0.00000000      0.00000000      0.00000000</v>
   <v name="AVECCONST">      0.00000000      0.00000000      0.00000000</v>
  </separator>
  <separator name="response functions" >
   <i type="logical" name="LADDER"> F  </i>
   <i type="logical" name="LRPAFORCE"> F  </i>
   <i type="logical" name="LFXC"> F  </i>
   <i type="logical" name="LHARTREE"> T  </i>
   <i type="int" name="IBSE">     0</i>
   <v type="int" name="KPOINT">    -1     0     0     0</v>
   <i type="logical" name="LTCTE"> F  </i>
   <i type="logical" name="LTETE"> F  </i>
   <i type="logical" name="LTRIPLET"> F  </i>
   <i type="logical" name="LFXCEPS"> F  </i>
   <i type="logical" name="LFXHEG"> F  </i>
   <i type="int" name="NATURALO">     2</i>
   <i type="logical" name="L2ORDER"> F  </i>
   <i type="logical" name="LMP2LT"> F  </i>
   <i type="logical" name="LUSEW"> F  </i>
   <i name="ENCUTGW">     -2.00000000</i>
   <i name="ENCUTGWSOFT">     -2.00000000</i>
   <i name="ENCUTLF">     -1.00000000</i>
   <i type="int" name="LMAXMP2">    -1</i>
   <i name="SCISSOR">      0.00000000</i>
   <i type="int" name="NOMEGA">     0</i>
   <i type="int" name="NOMEGAR">     0</i>
   <i type="int" name="NBANDSGW">    -1</i>
   <i type="int" name="NBANDSO">    -1</i>
   <i type="int" name="NBANDSV">    -1</i>
   <i type="int" name="NELM">   200</i>
   <i type="int" name="NELMHF">     1</i>
   <i type="int" name="DIM">     3</i>
   <i type="int" name="ANTIRES">     0</i>
   <i name="OMEGAMAX">    -30.00000000</i>
   <i name="OMEGAMIN">    -30.00000000</i>
   <i name="OMEGATL">   -200.00000000</i>
   <i type="int" name="OMEGAGRID">   140</i>
   <i name="CSHIFT">     -0.10000000</i>
   <i type="logical" name="SELFENERGY"> F  </i>
   <i type="logical" name="LSPECTRAL"> F  </i>
   <i type="logical" name="LSPECTRALGW"> F  </i>
   <i type="logical" name="LSINGLES"> F  </i>
   <i type="logical" name="LFERMIGW"> F  </i>
   <i type="logical" name="ODDONLYGW"> F  </i>
   <i type="logical" name="EVENONLYGW"> F  </i>
   <i type="int" name="NKREDLFX">     1</i>
   <i type="int" name="NKREDLFY">     1</i>
   <i type="int" name="NKREDLFZ">     1</i>
   <i type="int" name="MAXMEM">  2800</i>
   <i type="int" name="TELESCOPE">     0</i>
   <i type="int" name="TAUPAR">     1</i>
   <i type="int" name="OMEGAPAR">    -1</i>
   <i name="LAMBDA">      1.00000000</i>
  </separator>
  <separator name="External order field" >
   <i name="OFIELD_KAPPA">      0.00000000</i>
   <v name="OFIELD_K">      0.00000000      0.00000000      0.00000000</v>
   <i name="OFIELD_Q6_NEAR">      0.00000000</i>
   <i name="OFIELD_Q6_FAR">      0.00000000</i>
   <i name="OFIELD_A">      0.00000000</i>
  </separator>
  <separator name="solvation model" >
   <i type="logical" name="LSOL"> F  </i>
  </separator>
 </parameters>
 <atominfo>
  <atoms>     126 </atoms>
  <types>       3 </types>
  <array name="atoms" >
   <dimension dim="1">ion</dimension>
   <field type="string">element</field>
   <field type="int">atomtype</field>
   <set>
    <rc><c>N </c><c>   1</c></rc>
    <rc><c>N </c><c>   1</c></rc>
    <rc><c>N </c><c>   1</c></rc>
    <rc><c>N </c><c>   1</c></rc>
    <rc><c>N </c><c>   1</c></rc>
    <rc><c>N </c><c>   1</c></rc>
    <rc><c>N </c><c>   1</c></rc>
    <rc><c>N </c><c>   1</c></rc>
    <rc><c>N </c><c>   1</c></rc>
    <rc><c>N </c><c>   1</c></rc>
    <rc><c>N </c><c>   1</c></rc>
    <rc><c>N </c><c>   1</c></rc>
    <rc><c>N </c><c>   1</c></rc>
    <rc><c>N </c><c>   1</c></rc>
    <rc><c>N </c><c>   1</c></rc>
    <rc><c>N </c><c>   1</c></rc>
    <rc><c>N </c><c>   1</c></rc>
    <rc><c>N </c><c>   1</c></rc>
    <rc><c>C </c><c>   2</c></rc>
    <rc><c>C </c><c>   2</c></rc>
    <rc><c>C </c><c>   2</c></rc>
    <rc><c>C </c><c>   2</c></rc>
    <rc><c>C </c><c>   2</c></rc>
    <rc><c>C </c><c>   2</c></rc>
    <rc><c>C </c><c>   2</c></rc>
    <rc><c>C </c><c>   2</c></rc>
    <rc><c>C </c><c>   2</c></rc>
    <rc><c>C </c><c>   2</c></rc>
    <rc><c>C </c><c>   2</c></rc>
    <rc><c>C </c><c>   2</c></rc>
    <rc><c>C </c><c>   2</c></rc>
    <rc><c>C </c><c>   2</c></rc>
    <rc><c>C </c><c>   2</c></rc>
    <rc><c>C </c><c>   2</c></rc>
    <rc><c>C </c><c>   2</c></rc>
    <rc><c>C </c><c>   2</c></rc>
    <rc><c>C </c><c>   2</c></rc>
    <rc><c>C </c><c>   2</c></rc>
    <rc><c>C </c><c>   2</c></rc>
    <rc><c>C </c><c>   2</c></rc>
    <rc><c>C </c><c>   2</c></rc>
    <rc><c>C </c><c>   2</c></rc>
    <rc><c>C </c><c>   2</c></rc>
    <rc><c>C </c><c>   2</c></rc>
    <rc><c>C </c><c>   2</c></rc>
    <rc><c>C </c><c>   2</c></rc>
    <rc><c>C </c><c>   2</c></rc>
    <rc><c>C </c><c>   2</c></rc>
    <rc><c>C </c><c>   2</c></rc>
    <rc><c>C </c><c>   2</c></rc>
    <rc><c>C </c><c>   2</c></rc>
    <rc><c>C </c><c>   2</c></rc>
    <rc><c>C </c><c>   2</c></rc>
    <rc><c>C </c><c>   2</c></rc>
    <rc><c>C </c><c>   2</c></rc>
    <rc><c>C </c><c>   2</c></rc>
    <rc><c>C </c><c>   2</c></rc>
    <rc><c>C </c><c>   2</c></rc>
    <rc><c>C </c><c>   2</c></rc>
    <rc><c>C </c><c>   2</c></rc>
    <rc><c>C </c><c>   2</c></rc>
    <rc><c>C </c><c>   2</c></rc>
    <rc><c>C </c><c>   2</c></rc>
    <rc><c>C </c><c>   2</c></rc>
    <rc><c>C </c><c>   2</c></rc>
    <rc><c>C </c><c>   2</c></rc>
    <rc><c>C </c><c>   2</c></rc>
    <rc><c>C </c><c>   2</c></rc>
    <rc><c>C </c><c>   2</c></rc>
    <rc><c>C </c><c>   2</c></rc>
    <rc><c>C </c><c>   2</c></rc>
    <rc><c>C </c><c>   2</c></rc>
    <rc><c>C </c><c>   2</c></rc>
    <rc><c>C </c><c>   2</c></rc>
    <rc><c>C </c><c>   2</c></rc>
    <rc><c>C </c><c>   2</c></rc>
    <rc><c>C </c><c>   2</c></rc>
    <rc><c>C </c><c>   2</c></rc>
    <rc><c>C </c><c>   2</c></rc>
    <rc><c>C </c><c>   2</c></rc>
    <rc><c>C </c><c>   2</c></rc>
    <rc><c>C </c><c>   2</c></rc>
    <rc><c>C </c><c>   2</c></rc>
    <rc><c>C </c><c>   2</c></rc>
    <rc><c>C </c><c>   2</c></rc>
    <rc><c>C </c><c>   2</c></rc>
    <rc><c>C </c><c>   2</c></rc>
    <rc><c>C </c><c>   2</c></rc>
    <rc><c>C </c><c>   2</c></rc>
    <rc><c>C </c><c>   2</c></rc>
    <rc><c>H </c><c>   3</c></rc>
    <rc><c>H </c><c>   3</c></rc>
    <rc><c>H </c><c>   3</c></rc>
    <rc><c>H </c><c>   3</c></rc>
    <rc><c>H </c><c>   3</c></rc>
    <rc><c>H </c><c>   3</c></rc>
    <rc><c>H </c><c>   3</c></rc>
    <rc><c>H </c><c>   3</c></rc>
    <rc><c>H </c><c>   3</c></rc>
    <rc><c>H </c><c>   3</c></rc>
    <rc><c>H </c><c>   3</c></rc>
    <rc><c>H </c><c>   3</c></rc>
    <rc><c>H </c><c>   3</c></rc>
    <rc><c>H </c><c>   3</c></rc>
    <rc><c>H </c><c>   3</c></rc>
    <rc><c>H </c><c>   3</c></rc>
    <rc><c>H </c><c>   3</c></rc>
    <rc><c>H </c><c>   3</c></rc>
    <rc><c>H </c><c>   3</c></rc>
    <rc><c>H </c><c>   3</c></rc>
    <rc><c>H </c><c>   3</c></rc>
    <rc><c>H </c><c>   3</c></rc>
    <rc><c>H </c><c>   3</c></rc>
    <rc><c>H </c><c>   3</c></rc>
    <rc><c>H </c><c>   3</c></rc>
    <rc><c>H </c><c>   3</c></rc>
    <rc><c>H </c><c>   3</c></rc>
    <rc><c>H </c><c>   3</c></rc>
    <rc><c>H </c><c>   3</c></rc>
    <rc><c>H </c><c>   3</c></rc>
    <rc><c>H </c><c>   3</c></rc>
    <rc><c>H </c><c>   3</c></rc>
    <rc><c>H </c><c>   3</c></rc>
    <rc><c>H </c><c>   3</c></rc>
    <rc><c>H </c><c>   3</c></rc>
    <rc><c>H </c><c>   3</c></rc>
   </set>
  </array>
  <array name="atomtypes" >
   <dimension dim="1">type</dimension>
   <field type="int">atomspertype</field>
   <field type="string">element</field>
   <field>mass</field>
   <field>valence</field>
   <field type="string">pseudopotential</field>
   <set>
    <rc><c>  18</c><c>N </c><c>     14.00100000</c><c>      5.00000000</c><c>  PAW_PBE N 08Apr2002                   </c></rc>
    <rc><c>  72</c><c>C </c><c>     12.01100000</c><c>      4.00000000</c><c>  PAW_PBE C 08Apr2002                   </c></rc>
    <rc><c>  36</c><c>H </c><c>      1.00000000</c><c>      1.00000000</c><c>  PAW_PBE H 15Jun2001                   </c></rc>
   </set>
  </array>
 </atominfo>
 <structure name="initialpos" >
  <crystal>
   <varray name="basis" >
    <v>      30.37754464      -0.00176154       0.00000000 </v>
    <v>     -15.19030061      26.32308639       0.00000000 </v>
    <v>       0.00000000       0.00000000      20.00000000 </v>
   </varray>
   <i name="volume">  15992.07946707 </i>
   <varray name="rec_basis" >
    <v>       0.03292015       0.01899728       0.00000000 </v>
    <v>       0.00000220       0.03799074       0.00000000 </v>
    <v>       0.00000000       0.00000000       0.05000000 </v>
   </varray>
  </crystal>
  <varray name="positions" >
   <v>       0.04392350       0.51950363       0.57573446 </v>
   <v>       0.04394659       0.51965178       0.45591498 </v>
   <v>       0.25466719       0.71887290       0.57539814 </v>
   <v>       0.30254933       0.53050420       0.57523332 </v>
   <v>       0.25466287       0.71887462       0.45609929 </v>
   <v>       0.30225501       0.53012117       0.45597962 </v>
   <v>       0.50211403       0.97740726       0.57610934 </v>
   <v>       0.50216292       0.51943102       0.57538885 </v>
   <v>       0.49088843       0.76672303       0.57509482 </v>
   <v>       0.77726400       0.29195308       0.57524893 </v>
   <v>       0.54126436       0.24397761       0.57532768 </v>
   <v>       0.72932704       0.47989002       0.57535884 </v>
   <v>       0.50203003       0.97726695       0.45628202 </v>
   <v>       0.50227365       0.51956109       0.45557769 </v>
   <v>       0.49079417       0.76658900       0.45581345 </v>
   <v>       0.77713455       0.29196226       0.45593677 </v>
   <v>       0.54103199       0.24380508       0.45605339 </v>
   <v>       0.72949858       0.48026365       0.45606195 </v>
   <v>       0.15063006       0.53343832       0.51569003 </v>
   <v>       0.12396605       0.56006636       0.51577551 </v>
   <v>       0.14987247       0.61331669       0.51575235 </v>
   <v>       0.06716020       0.53131901       0.51582751 </v>
   <v>       0.20290172       0.64018672       0.51576105 </v>
   <v>       0.22919373       0.61334563       0.51579521 </v>
   <v>       0.20380287       0.56012805       0.51572297 </v>
   <v>       0.29939392       0.76235825       0.57481192 </v>
   <v>       0.23716138       0.69658937       0.51574726 </v>
   <v>       0.25909142       0.53183396       0.57475081 </v>
   <v>       0.29936562       0.76238981       0.45667640 </v>
   <v>       0.25879445       0.53144513       0.45664149 </v>
   <v>       0.23783165       0.53807899       0.51571015 </v>
   <v>       0.32471737       0.53509011       0.51555140 </v>
   <v>       0.32687379       0.78353293       0.51573963 </v>
   <v>       0.46394329       0.81847200       0.51553291 </v>
   <v>       0.41080477       0.79219099       0.51552439 </v>
   <v>       0.38293974       0.81755999       0.51575786 </v>
   <v>       0.40938442       0.87069772       0.51605737 </v>
   <v>       0.46267581       0.89735435       0.51614173 </v>
   <v>       0.49007265       0.87148037       0.51585803 </v>
   <v>       0.38117610       0.55729825       0.51548170 </v>
   <v>       0.40792378       0.61041892       0.51555084 </v>
   <v>       0.46116187       0.63836225       0.51557218 </v>
   <v>       0.48798956       0.61203225       0.51550983 </v>
   <v>       0.46147926       0.55877105       0.51549408 </v>
   <v>       0.40820010       0.53129339       0.51548203 </v>
   <v>       0.82895775       0.37056524       0.51559319 </v>
   <v>       0.80267595       0.39741077       0.51556015 </v>
   <v>       0.82812944       0.45062157       0.51558877 </v>
   <v>       0.88128914       0.47727328       0.51563662 </v>
   <v>       0.90820720       0.45076254       0.51569696 </v>
   <v>       0.88198528       0.39737337       0.51567415 </v>
   <v>       0.56813023       0.19219241       0.51570260 </v>
   <v>       0.62126365       0.21848249       0.51566357 </v>
   <v>       0.64910131       0.19308949       0.51571775 </v>
   <v>       0.62266154       0.13994750       0.51582761 </v>
   <v>       0.56922396       0.11301418       0.51585783 </v>
   <v>       0.54199198       0.13919276       0.51578614 </v>
   <v>       0.65070321       0.45300097       0.51562543 </v>
   <v>       0.62386592       0.39988360       0.51570988 </v>
   <v>       0.57062291       0.37208078       0.51559645 </v>
   <v>       0.54392864       0.39856000       0.51550443 </v>
   <v>       0.57043311       0.45197650       0.51546849 </v>
   <v>       0.62384432       0.47915763       0.51548683 </v>
   <v>       0.99303659       0.49372391       0.57500052 </v>
   <v>       0.96460604       0.47936941       0.51575565 </v>
   <v>       0.52729237       0.02827174       0.57526704 </v>
   <v>       0.54139070       0.05663628       0.51596965 </v>
   <v>       0.52774642       0.49413462       0.57468154 </v>
   <v>       0.54197418       0.47991658       0.51544963 </v>
   <v>       0.48955951       0.72195321       0.57458597 </v>
   <v>       0.48608636       0.78418658       0.51543348 </v>
   <v>       0.73260179       0.24839722       0.57472791 </v>
   <v>       0.79468757       0.31417632       0.51558137 </v>
   <v>       0.54238666       0.28863289       0.57474272 </v>
   <v>       0.54592413       0.22641168       0.51569677 </v>
   <v>       0.77289099       0.47878877       0.57478738 </v>
   <v>       0.70714207       0.47525782       0.51568835 </v>
   <v>       0.99307495       0.49385842       0.45655612 </v>
   <v>       0.52721114       0.02812671       0.45681720 </v>
   <v>       0.49064477       0.95412847       0.51623000 </v>
   <v>       0.52785363       0.49426135       0.45624447 </v>
   <v>       0.49040156       0.53089993       0.51548983 </v>
   <v>       0.48950922       0.72185008       0.45645497 </v>
   <v>       0.48314197       0.69439696       0.51556146 </v>
   <v>       0.73253598       0.24835722       0.45653334 </v>
   <v>       0.70514925       0.22714351       0.51566316 </v>
   <v>       0.54219127       0.28849037       0.45658027 </v>
   <v>       0.54858195       0.31602962       0.51562507 </v>
   <v>       0.77306922       0.47916852       0.45660332 </v>
   <v>       0.79415356       0.47269957       0.51565223 </v>
   <v>       0.12982838       0.49198756       0.51561713 </v>
   <v>       0.12859797       0.63348065       0.51573075 </v>
   <v>       0.27068755       0.63435819       0.51582578 </v>
   <v>       0.24167201       0.52998314       0.62332273 </v>
   <v>       0.24113875       0.52929045       0.40815838 </v>
   <v>       0.31497791       0.77984348       0.62334239 </v>
   <v>       0.31488053       0.77994195       0.40815438 </v>
   <v>       0.38871470       0.89148868       0.51616172 </v>
   <v>       0.53151556       0.89275257       0.51588712 </v>
   <v>       0.39034805       0.75071188       0.51538795 </v>
   <v>       0.52945732       0.63276970       0.51546830 </v>
   <v>       0.38814474       0.48987423       0.51548782 </v>
   <v>       0.38679595       0.63078233       0.51556965 </v>
   <v>       0.90211330       0.51872501       0.51565935 </v>
   <v>       0.90320639       0.37714595       0.51569286 </v>
   <v>       0.76118236       0.37642414       0.51550071 </v>
   <v>       0.64333832       0.11915791       0.51587448 </v>
   <v>       0.50054060       0.11794696       0.51581826 </v>
   <v>       0.64173508       0.25995696       0.51558777 </v>
   <v>       0.50245877       0.37791050       0.51546853 </v>
   <v>       0.64405533       0.52059159       0.51539689 </v>
   <v>       0.64488003       0.37940774       0.51583719 </v>
   <v>       0.97395634       0.48399270       0.62362902 </v>
   <v>       0.53665194       0.04738377       0.62386469 </v>
   <v>       0.53744762       0.48477073       0.62332157 </v>
   <v>       0.49150934       0.70643096       0.62314318 </v>
   <v>       0.71705008       0.23095729       0.62329382 </v>
   <v>       0.54045012       0.30418703       0.62327803 </v>
   <v>       0.79031029       0.48058789       0.62333536 </v>
   <v>       0.97404459       0.48421992       0.40788173 </v>
   <v>       0.53649903       0.04707271       0.40808921 </v>
   <v>       0.53763019       0.48500485       0.40757641 </v>
   <v>       0.49144357       0.70626110       0.40794387 </v>
   <v>       0.71700112       0.23084537       0.40799924 </v>
   <v>       0.54014610       0.30395973       0.40803051 </v>
   <v>       0.79064838       0.48128730       0.40807236 </v>
  </varray>
 </structure>
 <calculation>
  <scstep>
   <time name="dav">  387.54  391.22</time>
   <time name="total">  387.83  391.53</time>
   <energy>
    <i name="alphaZ">     50.59070512 </i>
    <i name="ewald">  54290.25111515 </i>
    <i name="hartreedc"> -67137.17221021 </i>
    <i name="XCdc">   1448.57255004 </i>
    <i name="pawpsdc">  39245.15729051 </i>
    <i name="pawaedc"> -39320.05291020 </i>
    <i name="eentropy">     -0.00000000 </i>
    <i name="bandstr">  -5303.57798093 </i>
    <i name="atom">  15805.82512633 </i>
    <i name="e_fr_energy">   -920.40631418 </i>
    <i name="e_wo_entrp">   -920.40631418 </i>
    <i name="e_0_energy">   -920.40631418 </i>
   </energy>
  </scstep>
  <scstep>
   <time name="dav">  437.34  441.62</time>
   <time name="total">  437.35  441.63</time>
   <energy>
    <i name="e_fr_energy">   -920.88497344 </i>
    <i name="e_wo_entrp">   -920.88497344 </i>
    <i name="e_0_energy">   -920.88497344 </i>
   </energy>
  </scstep>
  <scstep>
   <time name="dav">  489.91  494.65</time>
   <time name="total">  489.92  494.66</time>
   <energy>
    <i name="e_fr_energy">   -920.89936434 </i>
    <i name="e_wo_entrp">   -920.89936434 </i>
    <i name="e_0_energy">   -920.89936434 </i>
   </energy>
  </scstep>
  <scstep>
   <time name="dav">  433.68  437.89</time>
   <time name="total">  433.69  437.90</time>
   <energy>
    <i name="e_fr_energy">   -920.89959384 </i>
    <i name="e_wo_entrp">   -920.89959384 </i>
    <i name="e_0_energy">   -920.89959384 </i>
   </energy>
  </scstep>
  <scstep>
   <time name="dav">  422.93  427.03</time>
   <time name="total">  422.95  427.05</time>
   <energy>
    <i name="e_fr_energy">   -920.89960889 </i>
    <i name="e_wo_entrp">   -920.89960889 </i>
    <i name="e_0_energy">   -920.89960889 </i>
   </energy>
  </scstep>
  <scstep>
   <time name="dav">  330.41  333.67</time>
   <time name="total">  330.43  333.68</time>
   <energy>
    <i name="alphaZ">     50.59070512 </i>
    <i name="ewald">  54290.25111515 </i>
    <i name="hartreedc"> -67137.17221021 </i>
    <i name="XCdc">   1448.57255004 </i>
    <i name="pawpsdc">  39245.15729051 </i>
    <i name="pawaedc"> -39320.05291020 </i>
    <i name="eentropy">     -0.00000000 </i>
    <i name="bandstr">  -5304.07127579 </i>
    <i name="atom">  15805.82512633 </i>
    <i name="e_fr_energy">   -920.89960904 </i>
    <i name="e_wo_entrp">   -920.89960904 </i>
    <i name="e_0_energy">   -920.89960904 </i>
   </energy>
  </scstep>
  <structure>
   <crystal>
    <varray name="basis" >
     <v>      30.37754464      -0.00176154       0.00000000 </v>
     <v>     -15.19030061      26.32308639       0.00000000 </v>
     <v>       0.00000000       0.00000000      20.00000000 </v>
    </varray>
    <i name="volume">  15992.07946707 </i>
    <varray name="rec_basis" >
     <v>       0.03292015       0.01899728       0.00000000 </v>
     <v>       0.00000220       0.03799074       0.00000000 </v>
     <v>       0.00000000       0.00000000       0.05000000 </v>
    </varray>
   </crystal>
   <varray name="positions" >
    <v>       0.04392350       0.51950363       0.57573446 </v>
    <v>       0.04394659       0.51965178       0.45591498 </v>
    <v>       0.25466719       0.71887290       0.57539814 </v>
    <v>       0.30254933       0.53050420       0.57523332 </v>
    <v>       0.25466287       0.71887462       0.45609929 </v>
    <v>       0.30225501       0.53012117       0.45597962 </v>
    <v>       0.50211403       0.97740726       0.57610934 </v>
    <v>       0.50216292       0.51943102       0.57538885 </v>
    <v>       0.49088843       0.76672303       0.57509482 </v>
    <v>       0.77726400       0.29195308       0.57524893 </v>
    <v>       0.54126436       0.24397761       0.57532768 </v>
    <v>       0.72932704       0.47989002       0.57535884 </v>
    <v>       0.50203003       0.97726695       0.45628202 </v>
    <v>       0.50227365       0.51956109       0.45557769 </v>
    <v>       0.49079417       0.76658900       0.45581345 </v>
    <v>       0.77713455       0.29196226       0.45593677 </v>
    <v>       0.54103199       0.24380508       0.45605339 </v>
    <v>       0.72949858       0.48026365       0.45606195 </v>
    <v>       0.15063006       0.53343832       0.51569003 </v>
    <v>       0.12396605       0.56006636       0.51577551 </v>
    <v>       0.14987247       0.61331669       0.51575235 </v>
    <v>       0.06716020       0.53131901       0.51582751 </v>
    <v>       0.20290172       0.64018672       0.51576105 </v>
    <v>       0.22919373       0.61334563       0.51579521 </v>
    <v>       0.20380287       0.56012805       0.51572297 </v>
    <v>       0.29939392       0.76235825       0.57481192 </v>
    <v>       0.23716138       0.69658937       0.51574726 </v>
    <v>       0.25909142       0.53183396       0.57475081 </v>
    <v>       0.29936562       0.76238981       0.45667640 </v>
    <v>       0.25879445       0.53144513       0.45664149 </v>
    <v>       0.23783165       0.53807899       0.51571015 </v>
    <v>       0.32471737       0.53509011       0.51555140 </v>
    <v>       0.32687379       0.78353293       0.51573963 </v>
    <v>       0.46394329       0.81847200       0.51553291 </v>
    <v>       0.41080477       0.79219099       0.51552439 </v>
    <v>       0.38293974       0.81755999       0.51575786 </v>
    <v>       0.40938442       0.87069772       0.51605737 </v>
    <v>       0.46267581       0.89735435       0.51614173 </v>
    <v>       0.49007265       0.87148037       0.51585803 </v>
    <v>       0.38117610       0.55729825       0.51548170 </v>
    <v>       0.40792378       0.61041892       0.51555084 </v>
    <v>       0.46116187       0.63836225       0.51557218 </v>
    <v>       0.48798956       0.61203225       0.51550983 </v>
    <v>       0.46147926       0.55877105       0.51549408 </v>
    <v>       0.40820010       0.53129339       0.51548203 </v>
    <v>       0.82895775       0.37056524       0.51559319 </v>
    <v>       0.80267595       0.39741077       0.51556015 </v>
    <v>       0.82812944       0.45062157       0.51558877 </v>
    <v>       0.88128914       0.47727328       0.51563662 </v>
    <v>       0.90820720       0.45076254       0.51569696 </v>
    <v>       0.88198528       0.39737337       0.51567415 </v>
    <v>       0.56813023       0.19219241       0.51570260 </v>
    <v>       0.62126365       0.21848249       0.51566357 </v>
    <v>       0.64910131       0.19308949       0.51571775 </v>
    <v>       0.62266154       0.13994750       0.51582761 </v>
    <v>       0.56922396       0.11301418       0.51585783 </v>
    <v>       0.54199198       0.13919276       0.51578614 </v>
    <v>       0.65070321       0.45300097       0.51562543 </v>
    <v>       0.62386592       0.39988360       0.51570988 </v>
    <v>       0.57062291       0.37208078       0.51559645 </v>
    <v>       0.54392864       0.39856000       0.51550443 </v>
    <v>       0.57043311       0.45197650       0.51546849 </v>
    <v>       0.62384432       0.47915763       0.51548683 </v>
    <v>       0.99303659       0.49372391       0.57500052 </v>
    <v>       0.96460604       0.47936941       0.51575565 </v>
    <v>       0.52729237       0.02827174       0.57526704 </v>
    <v>       0.54139070       0.05663628       0.51596965 </v>
    <v>       0.52774642       0.49413462       0.57468154 </v>
    <v>       0.54197418       0.47991658       0.51544963 </v>
    <v>       0.48955951       0.72195321       0.57458597 </v>
    <v>       0.48608636       0.78418658       0.51543348 </v>
    <v>       0.73260179       0.24839722       0.57472791 </v>
    <v>       0.79468757       0.31417632       0.51558137 </v>
    <v>       0.54238666       0.28863289       0.57474272 </v>
    <v>       0.54592413       0.22641168       0.51569677 </v>
    <v>       0.77289099       0.47878877       0.57478738 </v>
    <v>       0.70714207       0.47525782       0.51568835 </v>
    <v>       0.99307495       0.49385842       0.45655612 </v>
    <v>       0.52721114       0.02812671       0.45681720 </v>
    <v>       0.49064477       0.95412847       0.51623000 </v>
    <v>       0.52785363       0.49426135       0.45624447 </v>
    <v>       0.49040156       0.53089993       0.51548983 </v>
    <v>       0.48950922       0.72185008       0.45645497 </v>
    <v>       0.48314197       0.69439696       0.51556146 </v>
    <v>       0.73253598       0.24835722       0.45653334 </v>
    <v>       0.70514925       0.22714351       0.51566316 </v>
    <v>       0.54219127       0.28849037       0.45658027 </v>
    <v>       0.54858195       0.31602962       0.51562507 </v>
    <v>       0.77306922       0.47916852       0.45660332 </v>
    <v>       0.79415356       0.47269957       0.51565223 </v>
    <v>       0.12982838       0.49198756       0.51561713 </v>
    <v>       0.12859797       0.63348065       0.51573075 </v>
    <v>       0.27068755       0.63435819       0.51582578 </v>
    <v>       0.24167201       0.52998314       0.62332273 </v>
    <v>       0.24113875       0.52929045       0.40815838 </v>
    <v>       0.31497791       0.77984348       0.62334239 </v>
    <v>       0.31488053       0.77994195       0.40815438 </v>
    <v>       0.38871470       0.89148868       0.51616172 </v>
    <v>       0.53151556       0.89275257       0.51588712 </v>
    <v>       0.39034805       0.75071188       0.51538795 </v>
    <v>       0.52945732       0.63276970       0.51546830 </v>
    <v>       0.38814474       0.48987423       0.51548782 </v>
    <v>       0.38679595       0.63078233       0.51556965 </v>
    <v>       0.90211330       0.51872501       0.51565935 </v>
    <v>       0.90320639       0.37714595       0.51569286 </v>
    <v>       0.76118236       0.37642414       0.51550071 </v>
    <v>       0.64333832       0.11915791       0.51587448 </v>
    <v>       0.50054060       0.11794696       0.51581826 </v>
    <v>       0.64173508       0.25995696       0.51558777 </v>
    <v>       0.50245877       0.37791050       0.51546853 </v>
    <v>       0.64405533       0.52059159       0.51539689 </v>
    <v>       0.64488003       0.37940774       0.51583719 </v>
    <v>       0.97395634       0.48399270       0.62362902 </v>
    <v>       0.53665194       0.04738377       0.62386469 </v>
    <v>       0.53744762       0.48477073       0.62332157 </v>
    <v>       0.49150934       0.70643096       0.62314318 </v>
    <v>       0.71705008       0.23095729       0.62329382 </v>
    <v>       0.54045012       0.30418703       0.62327803 </v>
    <v>       0.79031029       0.48058789       0.62333536 </v>
    <v>       0.97404459       0.48421992       0.40788173 </v>
    <v>       0.53649903       0.04707271       0.40808921 </v>
    <v>       0.53763019       0.48500485       0.40757641 </v>
    <v>       0.49144357       0.70626110       0.40794387 </v>
    <v>       0.71700112       0.23084537       0.40799924 </v>
    <v>       0.54014610       0.30395973       0.40803051 </v>
    <v>       0.79064838       0.48128730       0.40807236 </v>
   </varray>
  </structure>
  <varray name="forces" >
   <v>      -0.00649748      -0.00286702       0.00344438 </v>
   <v>       0.00472598       0.00322584       0.00391246 </v>
   <v>       0.00069541      -0.00042144       0.00270550 </v>
   <v>      -0.00050966      -0.00018317       0.00061151 </v>
   <v>       0.00073325       0.00523208       0.00105639 </v>
   <v>       0.00021474      -0.00543030      -0.00313723 </v>
   <v>      -0.00182992       0.00117186       0.00113290 </v>
   <v>       0.00591536      -0.00190524       0.00036714 </v>
   <v>      -0.00006589      -0.00308374      -0.00032096 </v>
   <v>       0.00222328       0.00134589      -0.00254428 </v>
   <v>      -0.00285155       0.00381500       0.00172338 </v>
   <v>       0.00228636      -0.00034602       0.00067118 </v>
   <v>       0.00148242       0.00142110       0.00042143 </v>
   <v>      -0.00228676       0.00078209       0.00215119 </v>
   <v>      -0.00030966      -0.00304744      -0.00265335 </v>
   <v>       0.00095896       0.00121049      -0.00167204 </v>
   <v>      -0.00188725       0.00099902      -0.00061512 </v>
   <v>       0.00046724       0.00125946      -0.00184955 </v>
   <v>       0.00022574      -0.00233951       0.00244978 </v>
   <v>      -0.00254652       0.00111887       0.00059838 </v>
   <v>       0.00463406      -0.00152580       0.00132857 </v>
   <v>      -0.00073483      -0.00060485      -0.00091201 </v>
   <v>      -0.00214362      -0.00162068      -0.00014884 </v>
   <v>       0.00073258      -0.00543422      -0.00206566 </v>
   <v>       0.00185558       0.00017571       0.00066164 </v>
   <v>       0.00115799      -0.00001053       0.00034830 </v>
   <v>      -0.00010127       0.00025622       0.00123814 </v>
   <v>      -0.00048518      -0.00335728       0.00024754 </v>
   <v>       0.00020165      -0.00006865      -0.00136762 </v>
   <v>      -0.00150973      -0.00148169       0.00018812 </v>
   <v>       0.00012009      -0.00521281      -0.00124367 </v>
   <v>      -0.00045874      -0.00000169      -0.00543486 </v>
   <v>       0.00274875       0.00000304       0.00220348 </v>
   <v>       0.00283683       0.00535929      -0.00003537 </v>
   <v>      -0.00242726      -0.00058793      -0.00256516 </v>
   <v>       0.00034569       0.00045170       0.00015050 </v>
   <v>      -0.00277524       0.00004663       0.00000479 </v>
   <v>       0.00231282       0.00305113      -0.00004594 </v>
   <v>      -0.00578743      -0.00653728       0.00142663 </v>
   <v>       0.00214357      -0.00144497      -0.00179602 </v>
   <v>       0.00267296       0.00268152      -0.00048128 </v>
   <v>      -0.00077852      -0.00103699      -0.00110818 </v>
   <v>       0.00265358      -0.00029908       0.00096247 </v>
   <v>       0.00032750      -0.00195412       0.00055053 </v>
   <v>      -0.00113173       0.00329173      -0.00067153 </v>
   <v>       0.00158018       0.00110439      -0.00149487 </v>
   <v>       0.00106834       0.00447546      -0.00183657 </v>
   <v>      -0.00056923       0.00134142       0.00125888 </v>
   <v>       0.00371419       0.00122657       0.00218848 </v>
   <v>      -0.00238345       0.00229204      -0.00022815 </v>
   <v>      -0.00446197       0.00190551      -0.00023055 </v>
   <v>       0.00069581      -0.00501719       0.00083434 </v>
   <v>       0.00247562       0.00034267      -0.00090363 </v>
   <v>       0.00031618      -0.00318287      -0.00051361 </v>
   <v>      -0.00200424      -0.00100966      -0.00081082 </v>
   <v>       0.00228798       0.00043878      -0.00067424 </v>
   <v>       0.00290372       0.00375012       0.00097477 </v>
   <v>      -0.00300500       0.00071526      -0.00070598 </v>
   <v>      -0.00186781       0.00001091      -0.00150234 </v>
   <v>      -0.00258330       0.00390769      -0.00090360 </v>
   <v>      -0.00041670       0.00177530      -0.00089007 </v>
   <v>       0.00030029      -0.00366699      -0.00142829 </v>
   <v>       0.00153107      -0.00291046      -0.00135614 </v>
   <v>       0.00337442       0.00167937      -0.00650515 </v>
   <v>       0.00287831      -0.00131481       0.00586923 </v>
   <v>      -0.00205613      -0.00354144      -0.00714454 </v>
   <v>      -0.00261762      -0.00011438       0.00847228 </v>
   <v>      -0.00072132       0.00029164      -0.00525261 </v>
   <v>      -0.00235605       0.00451488       0.00523043 </v>
   <v>      -0.00038895       0.00033889       0.00106767 </v>
   <v>      -0.00094074      -0.00018840       0.00023394 </v>
   <v>       0.00050619       0.00076002       0.00182258 </v>
   <v>      -0.00076293       0.00445199      -0.00097512 </v>
   <v>      -0.00208528       0.00199556      -0.00009907 </v>
   <v>       0.00211289      -0.00026594      -0.00116936 </v>
   <v>      -0.00075684      -0.00144496      -0.00416086 </v>
   <v>      -0.00101754      -0.00069221       0.00151430 </v>
   <v>      -0.00468490      -0.00350628      -0.00176534 </v>
   <v>      -0.00019071      -0.00291403      -0.00211827 </v>
   <v>      -0.00130408      -0.00049908       0.00191170 </v>
   <v>       0.00109482      -0.00001254      -0.00206166 </v>
   <v>       0.00069453      -0.00050556      -0.00307843 </v>
   <v>      -0.00282253       0.00035003      -0.00044039 </v>
   <v>       0.00070258      -0.00130972      -0.00088664 </v>
   <v>      -0.00329525      -0.00182237       0.00314521 </v>
   <v>       0.00235249       0.00544942      -0.00340808 </v>
   <v>       0.00035067       0.00168975       0.00167715 </v>
   <v>       0.00188258      -0.00419995       0.00018556 </v>
   <v>       0.00257590       0.00047613      -0.00028608 </v>
   <v>      -0.00230121      -0.00133860       0.00254491 </v>
   <v>      -0.00033145       0.00104714       0.00188736 </v>
   <v>       0.00085973      -0.00036756       0.00135845 </v>
   <v>      -0.00035495       0.00046033      -0.00099649 </v>
   <v>      -0.00084369       0.00180808      -0.00051737 </v>
   <v>      -0.00126816       0.00166003      -0.00241718 </v>
   <v>      -0.00106522       0.00106998       0.00041497 </v>
   <v>       0.00298299      -0.00088105      -0.00177994 </v>
   <v>      -0.00079565      -0.00067626       0.00207965 </v>
   <v>      -0.00034801       0.00068951       0.00007958 </v>
   <v>       0.00104844       0.00299541      -0.00390964 </v>
   <v>      -0.00205022      -0.00045333       0.00055248 </v>
   <v>      -0.00135141       0.00060525      -0.00057643 </v>
   <v>       0.00117854       0.00105994      -0.00063673 </v>
   <v>       0.00007610       0.00186236       0.00052721 </v>
   <v>       0.00004394       0.00218983       0.00107331 </v>
   <v>       0.00174444      -0.00137229       0.00019044 </v>
   <v>       0.00054418      -0.00057180       0.00014354 </v>
   <v>       0.00169870      -0.00215302      -0.00031314 </v>
   <v>      -0.00206873      -0.00192938      -0.00034715 </v>
   <v>      -0.00172013      -0.00034674      -0.00072508 </v>
   <v>      -0.00176472      -0.00258069      -0.00014330 </v>
   <v>      -0.00045480       0.00379171      -0.00025853 </v>
   <v>       0.00058890      -0.00160979       0.00128776 </v>
   <v>      -0.00026716       0.00174266       0.00108810 </v>
   <v>       0.00090793      -0.00048856       0.00069494 </v>
   <v>       0.00170479      -0.00271689       0.00092755 </v>
   <v>       0.00679248      -0.00047844      -0.00247859 </v>
   <v>      -0.00036582      -0.00001944       0.00054326 </v>
   <v>       0.00204670       0.00377715       0.00115176 </v>
   <v>       0.00118552       0.00151943       0.00361089 </v>
   <v>      -0.00113474       0.00054726       0.00618016 </v>
   <v>      -0.00154999       0.00063216       0.00362494 </v>
   <v>       0.00147754      -0.00301550       0.00073817 </v>
   <v>      -0.00110042      -0.00069680      -0.00026304 </v>
   <v>      -0.00179323      -0.00177423       0.00054483 </v>
   <v>      -0.00161156       0.00275092       0.00067459 </v>
  </varray>
  <varray name="stress" >
   <v>       0.00628989       0.00172301       0.00188223 </v>
   <v>       0.00172301       0.00546724      -0.00642584 </v>
   <v>       0.00188223      -0.00642584      -0.14771047 </v>
  </varray>
  <energy>
   <i name="e_fr_energy">   -923.55704170 </i>
   <i name="e_wo_entrp">   -923.55704170 </i>
   <i name="e_0_energy">     -0.00000000 </i>
  </energy>
  <time name="totalsc"> 2899.10 2928.45</time>
  <eigenvalues>
   <array>
    <dimension dim="1">band</dimension>
    <dimension dim="2">kpoint</dimension>
    <dimension dim="3">spin</dimension>
    <field>eigene</field>
    <field>occ</field>
    <set>
     <set comment="spin 1">
      <set comment="kpoint 1">
       <r>  -24.8716    1.0000 </r>
       <r>  -24.8628    1.0000 </r>
       <r>  -24.8624    1.0000 </r>
       <r>  -24.6306    1.0000 </r>
       <r>  -24.6295    1.0000 </r>
       <r>  -24.6290    1.0000 </r>
       <r>  -24.4820    1.0000 </r>
       <r>  -24.4735    1.0000 </r>
       <r>  -24.4733    1.0000 </r>
       <r>  -22.2412    1.0000 </r>
       <r>  -22.2409    1.0000 </r>
       <r>  -22.2392    1.0000 </r>
       <r>  -22.0588    1.0000 </r>
       <r>  -22.0585    1.0000 </r>
       <r>  -22.0581    1.0000 </r>
       <r>  -22.0096    1.0000 </r>
       <r>  -22.0084    1.0000 </r>
       <r>  -21.8664    1.0000 </r>
       <r>  -21.8531    1.0000 </r>
       <r>  -21.8521    1.0000 </r>
       <r>  -21.8506    1.0000 </r>
       <r>  -21.5544    1.0000 </r>
       <r>  -21.5530    1.0000 </r>
       <r>  -21.3912    1.0000 </r>
       <r>  -20.7083    1.0000 </r>
       <r>  -20.6654    1.0000 </r>
       <r>  -20.6646    1.0000 </r>
       <r>  -20.3598    1.0000 </r>
       <r>  -20.2525    1.0000 </r>
       <r>  -20.0783    1.0000 </r>
       <r>  -20.0780    1.0000 </r>
       <r>  -19.7613    1.0000 </r>
       <r>  -19.7609    1.0000 </r>
       <r>  -19.1857    1.0000 </r>
       <r>  -19.1739    1.0000 </r>
       <r>  -19.1738    1.0000 </r>
       <r>  -18.8082    1.0000 </r>
       <r>  -18.8075    1.0000 </r>
       <r>  -18.3319    1.0000 </r>
       <r>  -18.3310    1.0000 </r>
       <r>  -18.3206    1.0000 </r>
       <r>  -18.2034    1.0000 </r>
       <r>  -17.8971    1.0000 </r>
       <r>  -17.8963    1.0000 </r>
       <r>  -17.8163    1.0000 </r>
       <r>  -16.6484    1.0000 </r>
       <r>  -16.6469    1.0000 </r>
       <r>  -16.4621    1.0000 </r>
       <r>  -16.3994    1.0000 </r>
       <r>  -16.3986    1.0000 </r>
       <r>  -16.3967    1.0000 </r>
       <r>  -16.3956    1.0000 </r>
       <r>  -16.3907    1.0000 </r>
       <r>  -16.3796    1.0000 </r>
       <r>  -16.2536    1.0000 </r>
       <r>  -16.2531    1.0000 </r>
       <r>  -16.2524    1.0000 </r>
       <r>  -16.2358    1.0000 </r>
       <r>  -16.2347    1.0000 </r>
       <r>  -16.0109    1.0000 </r>
       <r>  -16.0101    1.0000 </r>
       <r>  -16.0030    1.0000 </r>
       <r>  -15.9998    1.0000 </r>
       <r>  -15.2617    1.0000 </r>
       <r>  -14.9943    1.0000 </r>
       <r>  -14.9938    1.0000 </r>
       <r>  -14.8697    1.0000 </r>
       <r>  -14.8509    1.0000 </r>
       <r>  -14.6953    1.0000 </r>
       <r>  -14.6948    1.0000 </r>
       <r>  -14.4934    1.0000 </r>
       <r>  -14.4931    1.0000 </r>
       <r>  -14.3826    1.0000 </r>
       <r>  -14.2778    1.0000 </r>
       <r>  -14.2775    1.0000 </r>
       <r>  -13.4771    1.0000 </r>
       <r>  -13.3487    1.0000 </r>
       <r>  -13.3477    1.0000 </r>
       <r>  -13.2223    1.0000 </r>
       <r>  -13.1280    1.0000 </r>
       <r>  -13.1276    1.0000 </r>
       <r>  -12.9969    1.0000 </r>
       <r>  -12.9564    1.0000 </r>
       <r>  -12.9554    1.0000 </r>
       <r>  -12.8349    1.0000 </r>
       <r>  -12.8342    1.0000 </r>
       <r>  -12.8325    1.0000 </r>
       <r>  -12.6005    1.0000 </r>
       <r>  -12.5646    1.0000 </r>
       <r>  -12.5637    1.0000 </r>
       <r>  -12.3983    1.0000 </r>
       <r>  -12.3973    1.0000 </r>
       <r>  -12.3438    1.0000 </r>
       <r>  -12.1683    1.0000 </r>
       <r>  -12.1410    1.0000 </r>
       <r>  -12.1404    1.0000 </r>
       <r>  -12.0417    1.0000 </r>
       <r>  -12.0408    1.0000 </r>
       <r>  -11.9944    1.0000 </r>
       <r>  -11.9930    1.0000 </r>
       <r>  -11.9483    1.0000 </r>
       <r>  -11.9123    1.0000 </r>
       <r>  -11.6930    1.0000 </r>
       <r>  -11.6921    1.0000 </r>
       <r>  -11.5703    1.0000 </r>
       <r>  -11.5502    1.0000 </r>
       <r>  -11.5493    1.0000 </r>
       <r>  -11.1161    1.0000 </r>
       <r>  -11.0595    1.0000 </r>
       <r>  -11.0592    1.0000 </r>
       <r>  -10.9330    1.0000 </r>
       <r>  -10.7436    1.0000 </r>
       <r>  -10.7346    1.0000 </r>
       <r>  -10.7336    1.0000 </r>
       <r>  -10.6247    1.0000 </r>
       <r>  -10.5217    1.0000 </r>
       <r>  -10.5198    1.0000 </r>
       <r>  -10.3811    1.0000 </r>
       <r>  -10.3070    1.0000 </r>
       <r>  -10.3056    1.0000 </r>
       <r>  -10.2482    1.0000 </r>
       <r>  -10.2468    1.0000 </r>
       <r>  -10.2313    1.0000 </r>
       <r>  -10.1898    1.0000 </r>
       <r>  -10.0769    1.0000 </r>
       <r>  -10.0758    1.0000 </r>
       <r>  -10.0498    1.0000 </r>
       <r>  -10.0488    1.0000 </r>
       <r>  -10.0476    1.0000 </r>
       <r>   -9.9853    1.0000 </r>
       <r>   -9.9023    1.0000 </r>
       <r>   -9.8939    1.0000 </r>
       <r>   -9.8935    1.0000 </r>
       <r>   -9.8549    1.0000 </r>
       <r>   -9.8532    1.0000 </r>
       <r>   -9.8509    1.0000 </r>
       <r>   -9.8500    1.0000 </r>
       <r>   -9.8036    1.0000 </r>
       <r>   -9.5075    1.0000 </r>
       <r>   -9.4718    1.0000 </r>
       <r>   -9.4704    1.0000 </r>
       <r>   -9.2552    1.0000 </r>
       <r>   -9.2513    1.0000 </r>
       <r>   -9.2505    1.0000 </r>
       <r>   -9.0379    1.0000 </r>
       <r>   -9.0369    1.0000 </r>
       <r>   -8.9904    1.0000 </r>
       <r>   -8.9104    1.0000 </r>
       <r>   -8.9102    1.0000 </r>
       <r>   -8.8741    1.0000 </r>
       <r>   -8.8145    1.0000 </r>
       <r>   -8.8131    1.0000 </r>
       <r>   -8.8117    1.0000 </r>
       <r>   -8.6153    1.0000 </r>
       <r>   -8.6148    1.0000 </r>
       <r>   -8.5468    1.0000 </r>
       <r>   -8.4894    1.0000 </r>
       <r>   -8.4882    1.0000 </r>
       <r>   -8.4598    1.0000 </r>
       <r>   -8.0433    1.0000 </r>
       <r>   -8.0310    1.0000 </r>
       <r>   -8.0297    1.0000 </r>
       <r>   -7.8832    1.0000 </r>
       <r>   -7.8829    1.0000 </r>
       <r>   -7.8827    1.0000 </r>
       <r>   -7.6571    1.0000 </r>
       <r>   -7.6469    1.0000 </r>
       <r>   -7.6456    1.0000 </r>
       <r>   -7.4084    1.0000 </r>
       <r>   -7.3295    1.0000 </r>
       <r>   -7.3269    1.0000 </r>
       <r>   -7.0924    1.0000 </r>
       <r>   -7.0484    1.0000 </r>
       <r>   -7.0477    1.0000 </r>
       <r>   -6.9832    1.0000 </r>
       <r>   -6.9811    1.0000 </r>
       <r>   -6.9589    1.0000 </r>
       <r>   -6.8492    1.0000 </r>
       <r>   -6.7746    1.0000 </r>
       <r>   -6.7720    1.0000 </r>
       <r>   -6.7693    1.0000 </r>
       <r>   -6.7685    1.0000 </r>
       <r>   -6.7578    1.0000 </r>
       <r>   -6.7468    1.0000 </r>
       <r>   -6.7454    1.0000 </r>
       <r>   -6.6725    1.0000 </r>
       <r>   -6.6532    1.0000 </r>
       <r>   -6.6522    1.0000 </r>
       <r>   -6.6276    1.0000 </r>
       <r>   -6.3990    1.0000 </r>
       <r>   -6.3979    1.0000 </r>
       <r>   -6.3287    1.0000 </r>
       <r>   -6.3229    1.0000 </r>
       <r>   -6.3216    1.0000 </r>
       <r>   -6.3110    1.0000 </r>
       <r>   -6.1829    1.0000 </r>
       <r>   -6.1822    1.0000 </r>
       <r>   -6.1593    1.0000 </r>
       <r>   -5.7876    1.0000 </r>
       <r>   -5.7573    1.0000 </r>
       <r>   -5.7570    1.0000 </r>
       <r>   -5.5228    1.0000 </r>
       <r>   -5.5218    1.0000 </r>
       <r>   -5.5209    1.0000 </r>
       <r>   -5.3730    1.0000 </r>
       <r>   -5.3568    1.0000 </r>
       <r>   -5.3559    1.0000 </r>
       <r>   -2.5709    0.0000 </r>
       <r>   -2.3802    0.0000 </r>
       <r>   -2.3785    0.0000 </r>
       <r>   -2.2349    0.0000 </r>
       <r>   -2.2282    0.0000 </r>
       <r>   -2.2188    0.0000 </r>
       <r>   -2.2176    0.0000 </r>
       <r>   -2.0698    0.0000 </r>
       <r>   -1.9929    0.0000 </r>
       <r>   -1.9917    0.0000 </r>
       <r>   -1.9442    0.0000 </r>
       <r>   -1.9435    0.0000 </r>
       <r>   -1.8460    0.0000 </r>
       <r>   -1.7699    0.0000 </r>
       <r>   -1.7696    0.0000 </r>
       <r>   -1.7624    0.0000 </r>
       <r>   -1.6285    0.0000 </r>
       <r>   -1.6236    0.0000 </r>
       <r>   -1.6225    0.0000 </r>
       <r>   -1.5385    0.0000 </r>
       <r>   -1.5376    0.0000 </r>
       <r>   -1.3101    0.0000 </r>
       <r>   -1.3088    0.0000 </r>
       <r>   -1.2383    0.0000 </r>
       <r>   -1.1800    0.0000 </r>
       <r>   -1.1789    0.0000 </r>
       <r>   -1.1695    0.0000 </r>
       <r>   -0.9060    0.0000 </r>
       <r>   -0.9056    0.0000 </r>
       <r>   -0.8410    0.0000 </r>
       <r>   -0.5090    0.0000 </r>
       <r>   -0.2071    0.0000 </r>
       <r>   -0.2066    0.0000 </r>
       <r>   -0.1696    0.0000 </r>
       <r>   -0.0172    0.0000 </r>
       <r>    0.0466    0.0000 </r>
       <r>    0.0655    0.0000 </r>
       <r>    0.0660    0.0000 </r>
       <r>    0.1949    0.0000 </r>
       <r>    0.3016    0.0000 </r>
       <r>    0.3023    0.0000 </r>
       <r>    0.3137    0.0000 </r>
       <r>    0.3138    0.0000 </r>
       <r>    0.3224    0.0000 </r>
       <r>    0.4053    0.0000 </r>
       <r>    0.4067    0.0000 </r>
       <r>    0.4260    0.0000 </r>
       <r>    0.4277    0.0000 </r>
       <r>    0.5179    0.0000 </r>
       <r>    0.5505    0.0000 </r>
       <r>    0.5517    0.0000 </r>
       <r>    0.6036    0.0000 </r>
       <r>    0.6689    0.0000 </r>
       <r>    0.6700    0.0000 </r>
       <r>    0.6977    0.0000 </r>
       <r>    0.7692    0.0000 </r>
       <r>    0.7739    0.0000 </r>
       <r>    0.7779    0.0000 </r>
       <r>    0.7961    0.0000 </r>
       <r>    0.8576    0.0000 </r>
       <r>    0.8584    0.0000 </r>
       <r>    0.8872    0.0000 </r>
       <r>    0.8887    0.0000 </r>
       <r>    0.9101    0.0000 </r>
       <r>    0.9261    0.0000 </r>
      </set>
      <set comment="kpoint 2">
       <r>  -24.8716    1.0000 </r>
       <r>  -24.8628    1.0000 </r>
       <r>  -24.8624    1.0000 </r>
       <r>  -24.6306    1.0000 </r>
       <r>  -24.6295    1.0000 </r>
       <r>  -24.6290    1.0000 </r>
       <r>  -24.4820    1.0000 </r>
       <r>  -24.4735    1.0000 </r>
       <r>  -24.4733    1.0000 </r>
       <r>  -22.2412    1.0000 </r>
       <r>  -22.2409    1.0000 </r>
       <r>  -22.2392    1.0000 </r>
       <r>  -22.0588    1.0000 </r>
       <r>  -22.0585    1.0000 </r>
       <r>  -22.0581    1.0000 </r>
       <r>  -22.0096    1.0000 </r>
       <r>  -22.0084    1.0000 </r>
       <r>  -21.8664    1.0000 </r>
       <r>  -21.8531    1.0000 </r>
       <r>  -21.8521    1.0000 </r>
       <r>  -21.8506    1.0000 </r>
       <r>  -21.5544    1.0000 </r>
       <r>  -21.5530    1.0000 </r>
       <r>  -21.3912    1.0000 </r>
       <r>  -20.7083    1.0000 </r>
       <r>  -20.6654    1.0000 </r>
       <r>  -20.6645    1.0000 </r>
       <r>  -20.3600    1.0000 </r>
       <r>  -20.2529    1.0000 </r>
       <r>  -20.0783    1.0000 </r>
       <r>  -20.0773    1.0000 </r>
       <r>  -19.7616    1.0000 </r>
       <r>  -19.7609    1.0000 </r>
       <r>  -19.1880    1.0000 </r>
       <r>  -19.1738    1.0000 </r>
       <r>  -19.1715    1.0000 </r>
       <r>  -18.8082    1.0000 </r>
       <r>  -18.8073    1.0000 </r>
       <r>  -18.3410    1.0000 </r>
       <r>  -18.3315    1.0000 </r>
       <r>  -18.3112    1.0000 </r>
       <r>  -18.2032    1.0000 </r>
       <r>  -17.8973    1.0000 </r>
       <r>  -17.8964    1.0000 </r>
       <r>  -17.8162    1.0000 </r>
       <r>  -16.6484    1.0000 </r>
       <r>  -16.6469    1.0000 </r>
       <r>  -16.4620    1.0000 </r>
       <r>  -16.3994    1.0000 </r>
[...]
       <r>   -19.5401     0.0000    66.0000 </r>
       <r>   -19.4455     0.0000    66.0000 </r>
       <r>   -19.3509     0.0000    66.0000 </r>
       <r>   -19.2563     0.3939    66.0373 </r>
       <r>   -19.1617    34.0747    70.1258 </r>
       <r>   -19.0671    17.2583    72.0000 </r>
       <r>   -18.9725     0.0000    72.0000 </r>
       <r>   -18.8779     0.0000    72.0000 </r>
       <r>   -18.7834    27.9600    74.6448 </r>
       <r>   -18.6888    11.9771    76.0000 </r>
       <r>   -18.5942     0.0000    76.0000 </r>
       <r>   -18.4996    11.9614    77.1314 </r>
       <r>   -18.4050     4.0605    77.6176 </r>
       <r>   -18.3104    25.3007    80.0933 </r>
       <r>   -18.2158    15.4809    81.6314 </r>
       <r>   -18.1212     9.0730    83.1261 </r>
       <r>   -18.0266     3.8563    84.0000 </r>
       <r>   -17.9320    12.2707    85.1607 </r>
       <r>   -17.8374    27.8489    88.0021 </r>
       <r>   -17.7428    21.1217    90.0000 </r>
       <r>   -17.6483     0.0000    90.0000 </r>
       <r>   -17.5537     0.0000    90.0000 </r>
       <r>   -17.4591     0.0000    90.0000 </r>
       <r>   -17.3645     0.0000    90.0000 </r>
       <r>   -17.2699     0.0000    90.0000 </r>
       <r>   -17.1753     0.0000    90.0000 </r>
       <r>   -17.0807     0.0000    90.0000 </r>
       <r>   -16.9861     0.0000    90.0000 </r>
       <r>   -16.8915     0.0000    90.0000 </r>
       <r>   -16.7969     0.0000    90.0000 </r>
       <r>   -16.7023     0.0000    90.0000 </r>
       <r>   -16.6078    42.2871    94.0000 </r>
       <r>   -16.5132     0.0000    94.0000 </r>
       <r>   -16.4186    26.1821    96.4766 </r>
       <r>   -16.3240   111.5436   108.0000 </r>
       <r>   -16.2294    97.1518   117.1897 </r>
       <r>   -16.1348     0.0000   118.0000 </r>
       <r>   -16.0402     0.0006   118.0001 </r>
       <r>   -15.9456    84.5736   126.0000 </r>
       <r>   -15.8510     0.0000   126.0000 </r>
       <r>   -15.7564     0.0000   126.0000 </r>
       <r>   -15.6618     0.0000   126.0000 </r>
       <r>   -15.5672     0.0000   126.0000 </r>
       <r>   -15.4727     0.0000   126.0000 </r>
       <r>   -15.3781     0.0000   126.0000 </r>
       <r>   -15.2835     0.0223   126.0021 </r>
       <r>   -15.1889    21.1212   128.0000 </r>
       <r>   -15.0943     0.0000   128.0000 </r>
       <r>   -14.9997     5.6337   128.5329 </r>
       <r>   -14.9051    12.2559   132.0003 </r>
       <r>   -14.8105    42.2844   136.0000 </r>
       <r>   -14.7159     0.0469   136.0044 </r>
       <r>   -14.6213    42.2401   140.0000 </r>
       <r>   -14.5267     0.0000   140.0000 </r>
       <r>   -14.4321    42.2871   144.0000 </r>
       <r>   -14.3376    21.1435   146.0000 </r>
       <r>   -14.2430    42.2871   150.0000 </r>
       <r>   -14.1484     0.0000   150.0000 </r>
       <r>   -14.0538     0.0000   150.0000 </r>
       <r>   -13.9592     0.0000   150.0000 </r>
       <r>   -13.8646     0.0000   150.0000 </r>
       <r>   -13.7700     0.0000   150.0000 </r>
       <r>   -13.6754     0.0000   150.0000 </r>
       <r>   -13.5808     0.0000   150.0000 </r>
       <r>   -13.4862     2.0918   150.1979 </r>
       <r>   -13.3916     0.0000   152.0000 </r>
       <r>   -13.2970    42.2871   156.0000 </r>
       <r>   -13.2025    19.8490   157.8775 </r>
       <r>   -13.1079    42.2255   161.9942 </r>
       <r>   -13.0133     0.2134   162.0202 </r>
       <r>   -12.9187    63.2172   168.0000 </r>
       <r>   -12.8241    57.8138   173.4687 </r>
       <r>   -12.7295     0.0000   174.0000 </r>
       <r>   -12.6349     0.0000   174.0000 </r>
       <r>   -12.5403    63.4146   179.9985 </r>
       <r>   -12.4457     0.0000   180.0000 </r>
       <r>   -12.3511    45.4636   184.3005 </r>
       <r>   -12.2565     0.0000   186.0000 </r>
       <r>   -12.1619    18.2911   187.7302 </r>
       <r>   -12.0674    42.2194   192.0002 </r>
       <r>   -11.9728    84.5222   199.9953 </r>
       <r>   -11.8782    42.2831   204.0000 </r>
       <r>   -11.7836     0.0000   204.0000 </r>
       <r>   -11.6890    21.8946   206.0710 </r>
       <r>   -11.5944     1.8779   208.1776 </r>
       <r>   -11.4998    48.9550   214.0000 </r>
       <r>   -11.4052     0.0000   214.0000 </r>
       <r>   -11.3106     0.0000   214.0000 </r>
       <r>   -11.2160     0.0120   214.0011 </r>
       <r>   -11.1214    19.4271   215.8388 </r>
       <r>   -11.0269    27.5477   218.6058 </r>
       <r>   -10.9323    12.5901   220.1655 </r>
       <r>   -10.8377    15.8445   221.9996 </r>
       <r>   -10.7431    21.9642   224.0776 </r>
       <r>   -10.6485    12.2323   228.0004 </r>
       <r>   -10.5539    21.1396   230.0001 </r>
       <r>   -10.4593    42.2864   234.0000 </r>
       <r>   -10.3647    20.8548   235.9727 </r>
       <r>   -10.2701    42.3180   240.0029 </r>
       <r>   -10.1755    84.0881   247.9569 </r>
       <r>   -10.0809     8.6518   248.8184 </r>
       <r>    -9.9863    66.9022   258.3284 </r>
       <r>    -9.8918    33.3222   263.1520 </r>
       <r>    -9.7972   113.7723   275.6336 </r>
       <r>    -9.7026     0.0000   276.0000 </r>
       <r>    -9.6080     0.0000   276.0000 </r>
       <r>    -9.5134     4.2347   276.4006 </r>
       <r>    -9.4188    42.2871   282.0000 </r>
       <r>    -9.3242     0.0000   282.0000 </r>
       <r>    -9.2296    63.3710   287.9944 </r>
       <r>    -9.1350     0.0000   288.0000 </r>
       <r>    -9.0404    14.3299   289.3555 </r>
       <r>    -8.9458    21.1436   294.0000 </r>
       <r>    -8.8512    63.4097   299.9980 </r>
       <r>    -8.7567    63.4306   306.0000 </r>
       <r>    -8.6621     0.0000   306.0000 </r>
       <r>    -8.5675    42.3270   310.0038 </r>
       <r>    -8.4729    63.9618   316.0540 </r>
       <r>    -8.3783     0.0000   318.0000 </r>
       <r>    -8.2837     0.0000   318.0000 </r>
       <r>    -8.1891     0.0000   318.0000 </r>
       <r>    -8.0945     0.0000   318.0000 </r>
       <r>    -7.9999    63.4302   324.0000 </r>
       <r>    -7.9053     0.0488   324.0046 </r>
       <r>    -7.8107    63.3818   330.0000 </r>
       <r>    -7.7161     0.0000   330.0000 </r>
       <r>    -7.6216    63.4199   335.9990 </r>
       <r>    -7.5270     0.0000   336.0000 </r>
       <r>    -7.4324     0.0053   336.0005 </r>
       <r>    -7.3378    24.1190   338.2820 </r>
       <r>    -7.2432     0.0000   342.0000 </r>
       <r>    -7.1486     0.0002   342.0000 </r>
       <r>    -7.0540    26.9304   344.5474 </r>
       <r>    -6.9594    60.2427   352.0784 </r>
       <r>    -6.8648    20.2319   354.2478 </r>
       <r>    -6.7702    57.1388   360.9100 </r>
       <r>    -6.6756    37.6394   370.1342 </r>
       <r>    -6.5810    76.7405   378.0000 </r>
       <r>    -6.4865     0.0000   378.0000 </r>
       <r>    -6.3919    35.0790   381.3182 </r>
       <r>    -6.2973    84.0169   389.9473 </r>
       <r>    -6.2027     0.0940   390.0089 </r>
       <r>    -6.1081    63.3366   396.0000 </r>
       <r>    -6.0135     0.0000   396.0000 </r>
       <r>    -5.9189     0.0000   396.0000 </r>
       <r>    -5.8243     0.0000   396.0000 </r>
       <r>    -5.7297    63.4284   401.9998 </r>
       <r>    -5.6351     0.0000   402.0000 </r>
       <r>    -5.5405     0.9299   402.0880 </r>
       <r>    -5.4460    47.0744   408.0000 </r>
       <r>    -5.3514    53.0795   413.0209 </r>
       <r>    -5.2568     0.0000   414.0000 </r>
       <r>    -5.1622     0.0000   414.0000 </r>
       <r>    -5.0676     0.0000   414.0000 </r>
       <r>    -4.9730     0.0000   414.0000 </r>
       <r>    -4.8784     0.0000   414.0000 </r>
       <r>    -4.7838     0.0000   414.0000 </r>
       <r>    -4.6892     0.0000   414.0000 </r>
       <r>    -4.5946     0.0000   414.0000 </r>
       <r>    -4.5000     0.0000   414.0000 </r>
       <r>    -4.4054     0.0000   414.0000 </r>
       <r>    -4.3109     0.0000   414.0000 </r>
       <r>    -4.2163     0.0000   414.0000 </r>
       <r>    -4.1217     0.0000   414.0000 </r>
       <r>    -4.0271     0.0000   414.0000 </r>
       <r>    -3.9325     0.0000   414.0000 </r>
       <r>    -3.8379     0.0000   414.0000 </r>
       <r>    -3.7433     0.0000   414.0000 </r>
       <r>    -3.6487     0.0000   414.0000 </r>
       <r>    -3.5541     0.0000   414.0000 </r>
       <r>    -3.4595     0.0000   414.0000 </r>
       <r>    -3.3649     0.0000   414.0000 </r>
       <r>    -3.2703     0.0000   414.0000 </r>
       <r>    -3.1758     0.0000   414.0000 </r>
       <r>    -3.0812     0.0000   414.0000 </r>
       <r>    -2.9866     0.0000   414.0000 </r>
       <r>    -2.8920     0.0000   414.0000 </r>
       <r>    -2.7974     0.0000   414.0000 </r>
       <r>    -2.7028     0.0000   414.0000 </r>
       <r>    -2.6082     0.0000   414.0000 </r>
       <r>    -2.5136    21.1435   416.0000 </r>
       <r>    -2.4190     0.0000   416.0000 </r>
       <r>    -2.3244    42.2871   420.0000 </r>
       <r>    -2.2298    29.7918   422.8181 </r>
       <r>    -2.1352    18.6580   428.0000 </r>
       <r>    -2.0407    21.1435   430.0000 </r>
       <r>    -1.9461    59.8905   435.6651 </r>
       <r>    -1.8515     4.5322   438.4287 </r>
       <r>    -1.7569    44.0443   444.1662 </r>
       <r>    -1.6623    14.4210   446.0000 </r>
       <r>    -1.5677    63.4319   452.0001 </r>
       <r>    -1.4731    42.2858   456.0000 </r>
       <r>    -1.3785     0.0000   456.0000 </r>
       <r>    -1.2839    42.2824   459.9996 </r>
       <r>    -1.1893    22.4662   462.1251 </r>
       <r>    -1.0947    40.6470   468.0000 </r>
       <r>    -1.0001     0.0000   468.0000 </r>
       <r>    -0.9056    22.6501   470.1425 </r>
       <r>    -0.8110    21.1434   474.0000 </r>
       <r>    -0.7164     0.0000   474.0000 </r>
       <r>    -0.6218     0.0000   474.0000 </r>
       <r>    -0.5272     0.0761   474.0072 </r>
       <r>    -0.4326    21.0674   476.0000 </r>
       <r>    -0.3380     0.0000   476.0000 </r>
       <r>    -0.2434     4.7595   476.4502 </r>
       <r>    -0.1488    32.5970   480.4513 </r>
       <r>    -0.0542    23.4397   482.8513 </r>
       <r>     0.0404    10.7363   484.2830 </r>
       <r>     0.1350    44.9244   490.2495 </r>
       <r>     0.2295    16.8931   492.5983 </r>
       <r>     0.3241    74.0628   500.2085 </r>
       <r>     0.4187    34.2302   504.3399 </r>
       <r>     0.5133    47.2156   510.6067 </r>
       <r>     0.6079    40.6853   515.1161 </r>
       <r>     0.7025    88.4295   523.8687 </r>
       <r>     0.7971    73.4097   531.5123 </r>
       <r>     0.8917    90.1935   541.2353 </r>
       <r>     0.9863     7.7131   544.0000 </r>
       <r>     1.0809     0.0000   544.0000 </r>
       <r>     1.1755     0.0000   544.0000 </r>
       <r>     1.2700     0.0000   544.0000 </r>
       <r>     1.3646     0.0000   544.0000 </r>
       <r>     1.4592     0.0000   544.0000 </r>
       <r>     1.5538     0.0000   544.0000 </r>
       <r>     1.6484     0.0000   544.0000 </r>
       <r>     1.7430     0.0000   544.0000 </r>
       <r>     1.8376     0.0000   544.0000 </r>
       <r>     1.9322     0.0000   544.0000 </r>
       <r>     2.0268     0.0000   544.0000 </r>
       <r>     2.1214     0.0000   544.0000 </r>
       <r>     2.2160     0.0000   544.0000 </r>
      </set>
     </set>
    </array>
   </total>
  </dos>
 </calculation>
 <structure name="finalpos" >
  <crystal>
   <varray name="basis" >
    <v>      30.37754464      -0.00176154       0.00000000 </v>
    <v>     -15.19030061      26.32308639       0.00000000 </v>
    <v>       0.00000000       0.00000000      20.00000000 </v>
   </varray>
   <i name="volume">  15992.07946707 </i>
   <varray name="rec_basis" >
    <v>       0.03292015       0.01899728       0.00000000 </v>
    <v>       0.00000220       0.03799074       0.00000000 </v>
    <v>       0.00000000       0.00000000       0.05000000 </v>
   </varray>
  </crystal>
  <varray name="positions" >
   <v>       0.04392350       0.51950363       0.57573446 </v>
   <v>       0.04394659       0.51965178       0.45591498 </v>
   <v>       0.25466719       0.71887290       0.57539814 </v>
   <v>       0.30254933       0.53050420       0.57523332 </v>
   <v>       0.25466287       0.71887462       0.45609929 </v>
   <v>       0.30225501       0.53012117       0.45597962 </v>
   <v>       0.50211403       0.97740726       0.57610934 </v>
   <v>       0.50216292       0.51943102       0.57538885 </v>
   <v>       0.49088843       0.76672303       0.57509482 </v>
   <v>       0.77726400       0.29195308       0.57524893 </v>
   <v>       0.54126436       0.24397761       0.57532768 </v>
   <v>       0.72932704       0.47989002       0.57535884 </v>
   <v>       0.50203003       0.97726695       0.45628202 </v>
   <v>       0.50227365       0.51956109       0.45557769 </v>
   <v>       0.49079417       0.76658900       0.45581345 </v>
   <v>       0.77713455       0.29196226       0.45593677 </v>
   <v>       0.54103199       0.24380508       0.45605339 </v>
   <v>       0.72949858       0.48026365       0.45606195 </v>
   <v>       0.15063006       0.53343832       0.51569003 </v>
   <v>       0.12396605       0.56006636       0.51577551 </v>
   <v>       0.14987247       0.61331669       0.51575235 </v>
   <v>       0.06716020       0.53131901       0.51582751 </v>
   <v>       0.20290172       0.64018672       0.51576105 </v>
   <v>       0.22919373       0.61334563       0.51579521 </v>
   <v>       0.20380287       0.56012805       0.51572297 </v>
   <v>       0.29939392       0.76235825       0.57481192 </v>
   <v>       0.23716138       0.69658937       0.51574726 </v>
   <v>       0.25909142       0.53183396       0.57475081 </v>
   <v>       0.29936562       0.76238981       0.45667640 </v>
   <v>       0.25879445       0.53144513       0.45664149 </v>
   <v>       0.23783165       0.53807899       0.51571015 </v>
   <v>       0.32471737       0.53509011       0.51555140 </v>
   <v>       0.32687379       0.78353293       0.51573963 </v>
   <v>       0.46394329       0.81847200       0.51553291 </v>
   <v>       0.41080477       0.79219099       0.51552439 </v>
   <v>       0.38293974       0.81755999       0.51575786 </v>
   <v>       0.40938442       0.87069772       0.51605737 </v>
   <v>       0.46267581       0.89735435       0.51614173 </v>
   <v>       0.49007265       0.87148037       0.51585803 </v>
   <v>       0.38117610       0.55729825       0.51548170 </v>
   <v>       0.40792378       0.61041892       0.51555084 </v>
   <v>       0.46116187       0.63836225       0.51557218 </v>
   <v>       0.48798956       0.61203225       0.51550983 </v>
   <v>       0.46147926       0.55877105       0.51549408 </v>
   <v>       0.40820010       0.53129339       0.51548203 </v>
   <v>       0.82895775       0.37056524       0.51559319 </v>
   <v>       0.80267595       0.39741077       0.51556015 </v>
   <v>       0.82812944       0.45062157       0.51558877 </v>
   <v>       0.88128914       0.47727328       0.51563662 </v>
   <v>       0.90820720       0.45076254       0.51569696 </v>
   <v>       0.88198528       0.39737337       0.51567415 </v>
   <v>       0.56813023       0.19219241       0.51570260 </v>
   <v>       0.62126365       0.21848249       0.51566357 </v>
   <v>       0.64910131       0.19308949       0.51571775 </v>
   <v>       0.62266154       0.13994750       0.51582761 </v>
   <v>       0.56922396       0.11301418       0.51585783 </v>
   <v>       0.54199198       0.13919276       0.51578614 </v>
   <v>       0.65070321       0.45300097       0.51562543 </v>
   <v>       0.62386592       0.39988360       0.51570988 </v>
   <v>       0.57062291       0.37208078       0.51559645 </v>
   <v>       0.54392864       0.39856000       0.51550443 </v>
   <v>       0.57043311       0.45197650       0.51546849 </v>
   <v>       0.62384432       0.47915763       0.51548683 </v>
   <v>       0.99303659       0.49372391       0.57500052 </v>
   <v>       0.96460604       0.47936941       0.51575565 </v>
   <v>       0.52729237       0.02827174       0.57526704 </v>
   <v>       0.54139070       0.05663628       0.51596965 </v>
   <v>       0.52774642       0.49413462       0.57468154 </v>
   <v>       0.54197418       0.47991658       0.51544963 </v>
   <v>       0.48955951       0.72195321       0.57458597 </v>
   <v>       0.48608636       0.78418658       0.51543348 </v>
   <v>       0.73260179       0.24839722       0.57472791 </v>
   <v>       0.79468757       0.31417632       0.51558137 </v>
   <v>       0.54238666       0.28863289       0.57474272 </v>
   <v>       0.54592413       0.22641168       0.51569677 </v>
   <v>       0.77289099       0.47878877       0.57478738 </v>
   <v>       0.70714207       0.47525782       0.51568835 </v>
   <v>       0.99307495       0.49385842       0.45655612 </v>
   <v>       0.52721114       0.02812671       0.45681720 </v>
   <v>       0.49064477       0.95412847       0.51623000 </v>
   <v>       0.52785363       0.49426135       0.45624447 </v>
   <v>       0.49040156       0.53089993       0.51548983 </v>
   <v>       0.48950922       0.72185008       0.45645497 </v>
   <v>       0.48314197       0.69439696       0.51556146 </v>
   <v>       0.73253598       0.24835722       0.45653334 </v>
   <v>       0.70514925       0.22714351       0.51566316 </v>
   <v>       0.54219127       0.28849037       0.45658027 </v>
   <v>       0.54858195       0.31602962       0.51562507 </v>
   <v>       0.77306922       0.47916852       0.45660332 </v>
   <v>       0.79415356       0.47269957       0.51565223 </v>
   <v>       0.12982838       0.49198756       0.51561713 </v>
   <v>       0.12859797       0.63348065       0.51573075 </v>
   <v>       0.27068755       0.63435819       0.51582578 </v>
   <v>       0.24167201       0.52998314       0.62332273 </v>
   <v>       0.24113875       0.52929045       0.40815838 </v>
   <v>       0.31497791       0.77984348       0.62334239 </v>
   <v>       0.31488053       0.77994195       0.40815438 </v>
   <v>       0.38871470       0.89148868       0.51616172 </v>
   <v>       0.53151556       0.89275257       0.51588712 </v>
   <v>       0.39034805       0.75071188       0.51538795 </v>
   <v>       0.52945732       0.63276970       0.51546830 </v>
   <v>       0.38814474       0.48987423       0.51548782 </v>
   <v>       0.38679595       0.63078233       0.51556965 </v>
   <v>       0.90211330       0.51872501       0.51565935 </v>
   <v>       0.90320639       0.37714595       0.51569286 </v>
   <v>       0.76118236       0.37642414       0.51550071 </v>
   <v>       0.64333832       0.11915791       0.51587448 </v>
   <v>       0.50054060       0.11794696       0.51581826 </v>
   <v>       0.64173508       0.25995696       0.51558777 </v>
   <v>       0.50245877       0.37791050       0.51546853 </v>
   <v>       0.64405533       0.52059159       0.51539689 </v>
   <v>       0.64488003       0.37940774       0.51583719 </v>
   <v>       0.97395634       0.48399270       0.62362902 </v>
   <v>       0.53665194       0.04738377       0.62386469 </v>
   <v>       0.53744762       0.48477073       0.62332157 </v>
   <v>       0.49150934       0.70643096       0.62314318 </v>
   <v>       0.71705008       0.23095729       0.62329382 </v>
   <v>       0.54045012       0.30418703       0.62327803 </v>
   <v>       0.79031029       0.48058789       0.62333536 </v>
   <v>       0.97404459       0.48421992       0.40788173 </v>
   <v>       0.53649903       0.04707271       0.40808921 </v>
   <v>       0.53763019       0.48500485       0.40757641 </v>
   <v>       0.49144357       0.70626110       0.40794387 </v>
   <v>       0.71700112       0.23084537       0.40799924 </v>
   <v>       0.54014610       0.30395973       0.40803051 </v>
   <v>       0.79064838       0.48128730       0.40807236 </v>
  </varray>
 </structure>
</modeling>
