<?xml version="1.0" encoding="ISO-8859-1"?>
<modeling>
 <generator>
  <i name="program" type="string">vasp </i>
  <i name="version" type="string">5.4.4.18Apr17-6-g9f103f2a35  </i>
  <i name="subversion" type="string">(build Jun 07 2020 16:50:00) complex            parallel </i>
  <i name="platform" type="string">LinuxIFC </i>
  <i name="date" type="string">2023 03 04 </i>
  <i name="time" type="string">18:38:42 </i>
 </generator>
 <incar>
  <i type="string" name="SYSTEM">Simulation for cell shape cell volume r</i>
  <i type="int" name="ISTART">     1</i>
  <i type="string" name="PREC">high</i>
  <i type="string" name="ALGO">48</i>
  <i type="int" name="ICHARG">    11</i>
  <i type="int" name="NELM">   200</i>
  <i type="int" name="IBRION">    -1</i>
  <i name="EDIFF">      0.00001000</i>
  <i name="EDIFFG">     -0.01000000</i>
  <i type="int" name="NSW">     0</i>
  <i type="int" name="ISIF">     2</i>
  <i name="ENCUT">    500.00000000</i>
  <i name="POTIM">      0.30000000</i>
  <i type="string" name="LREAL">A</i>
  <i type="int" name="ISMEAR">     0</i>
  <i name="SIGMA">      0.01000000</i>
  <i type="int" name="NWRITE">     0</i>
  <i type="logical" name="LWAVE"> F  </i>
  <i type="logical" name="LCHARG"> F  </i>
  <v type="int" name="KPOINT_BSE">    -1     0     0     0</v>
  <i type="int" name="NELM">   200</i>
  <i type="string" name="GGA">PE</i>
 </incar>
 <structure name="primitive_cell" >
  <crystal>
   <varray name="basis" >
    <v>      21.95362151       0.02333032       0.00000000 </v>
    <v>       0.02261993      21.88757065       0.00000000 </v>
    <v>       0.00000000       0.00000000      20.00000000 </v>
   </varray>
   <i name="volume">   9610.21828237 </i>
   <varray name="rec_basis" >
    <v>       0.04555062      -0.00004707       0.00000000 </v>
    <v>      -0.00004855       0.04568808       0.00000000 </v>
    <v>       0.00000000       0.00000000       0.05000000 </v>
   </varray>
  </crystal>
  <varray name="positions" >
   <v>       0.01153585       0.27682648      -0.49126051 </v>
   <v>       0.00969534       0.22642294       0.47654781 </v>
   <v>       0.01291898       0.33583975       0.48546623 </v>
   <v>       0.01236260       0.22409003       0.42146374 </v>
   <v>       0.06053356       0.37327111      -0.49059050 </v>
   <v>       0.00416662       0.16875990      -0.48687395 </v>
   <v>       0.00083661       0.21313199      -0.39053458 </v>
   <v>      -0.03205979       0.36530645       0.44580186 </v>
   <v>       0.09635204       0.35146629      -0.46127570 </v>
   <v>      -0.00005475       0.16936668      -0.41649355 </v>
   <v>      -0.10419112       0.28725403       0.44894671 </v>
   <v>      -0.08395704       0.33175191       0.41743359 </v>
   <v>       0.00289377       0.11281604       0.47953046 </v>
   <v>       0.06041457       0.43581742       0.49949437 </v>
   <v>      -0.03176472       0.42846813       0.43514869 </v>
   <v>       0.00610060       0.11235736       0.42499844 </v>
   <v>      -0.00498850       0.11493886      -0.38219094 </v>
   <v>      -0.10508983       0.35085596       0.36375224 </v>
   <v>       0.01302136       0.46499653       0.46405514 </v>
   <v>       0.09669084       0.46340369      -0.47870613 </v>
   <v>      -0.06862467       0.44847795       0.40607394 </v>
   <v>      -0.00199379       0.05714616      -0.48578713 </v>
   <v>      -0.00807760       0.11511643      -0.32765908 </v>
   <v>      -0.00586412       0.05841526      -0.41595304 </v>
   <v>      -0.00614993      -0.48091125      -0.42342877 </v>
   <v>       0.00742688      -0.46755883       0.47118426 </v>
   <v>      -0.00128409      -0.44680064      -0.46280695 </v>
   <v>      -0.00193466      -0.00261148       0.47354065 </v>
   <v>       0.00257208      -0.48594651       0.33040147 </v>
   <v>       0.05782286      -0.00424641       0.43311760 </v>
   <v>      -0.01083197       0.00148062      -0.37470942 </v>
   <v>       0.11288230      -0.00143096      -0.47726589 </v>
   <v>      -0.05928861      -0.00262440       0.42912124 </v>
   <v>       0.11344243      -0.00325830       0.46810616 </v>
   <v>       0.02463981       0.00210754      -0.33555707 </v>
   <v>      -0.11963924      -0.00494890      -0.48541236 </v>
   <v>      -0.05424096       0.00263119      -0.34666432 </v>
   <v>       0.01403866      -0.42167699       0.42223196 </v>
   <v>      -0.11689370      -0.00339574       0.46002469 </v>
   <v>       0.00473224       0.03746841       0.28837078 </v>
   <v>       0.05912292      -0.00510577       0.36315964 </v>
   <v>      -0.05636055      -0.00161234       0.35920101 </v>
   <v>       0.02511706      -0.43773875       0.35147446 </v>
   <v>       0.00253202      -0.00289798       0.32148729 </v>
   <v>       0.16930401      -0.00304347       0.43455753 </v>
   <v>      -0.00368529      -0.06012257      -0.48228177 </v>
   <v>      -0.00391719      -0.38527381      -0.44691323 </v>
   <v>       0.29380409       0.11795095       0.39358121 </v>
   <v>      -0.00692156      -0.05756900      -0.41242763 </v>
   <v>       0.22605385       0.00942371      -0.47493821 </v>
   <v>       0.11547996      -0.00647361       0.32952359 </v>
   <v>      -0.17074930      -0.00248887       0.42259332 </v>
   <v>      -0.11059279       0.00018985       0.32162709 </v>
   <v>       0.16978413      -0.00530964       0.36403035 </v>
   <v>       0.22730615       0.00358090       0.47016441 </v>
   <v>      -0.16681851      -0.00003334       0.35215421 </v>
   <v>      -0.01096546      -0.37023472      -0.39551831 </v>
   <v>       0.05583605      -0.40170676       0.31746015 </v>
   <v>       0.01288107      -0.35942816       0.43741122 </v>
   <v>       0.11565904      -0.00723620       0.27490537 </v>
   <v>      -0.10749000       0.00151803       0.26711366 </v>
   <v>      -0.23109563      -0.00508629       0.45387370 </v>
   <v>      -0.23290781      -0.00986466      -0.49104286 </v>
   <v>       0.00226239      -0.04223831       0.28686213 </v>
   <v>       0.21340230      -0.00452186       0.33809013 </v>
   <v>       0.00303805      -0.34009430      -0.49645754 </v>
   <v>       0.27651497       0.00636720       0.43629246 </v>
   <v>      -0.20888237       0.00109272       0.32332581 </v>
   <v>      -0.00215874      -0.11765973       0.48641645 </v>
   <v>       0.34820113       0.10461028       0.38385828 </v>
   <v>      -0.00018996      -0.11998636       0.43185021 </v>
   <v>      -0.00732553      -0.11227508      -0.37526005 </v>
   <v>       0.02090597      -0.32713592       0.39692805 </v>
   <v>      -0.27827902      -0.00311538       0.41585886 </v>
   <v>      -0.00963178      -0.10955020      -0.32076004 </v>
   <v>       0.33615727       0.01122383       0.45510446 </v>
   <v>       0.38171681       0.13038707       0.34246571 </v>
   <v>       0.37440887       0.05505277       0.42391161 </v>
   <v>      -0.33331495       0.01654759      -0.45848159 </v>
   <v>       0.00147578      -0.28020095      -0.47291902 </v>
   <v>      -0.00285826      -0.17194140      -0.47665585 </v>
   <v>      -0.00512301      -0.16852933      -0.40617794 </v>
   <v>      -0.33902210      -0.00463832       0.43542505 </v>
   <v>      -0.36344329       0.00636403       0.49961055 </v>
   <v>       0.36528389      -0.03301365       0.49560172 </v>
   <v>       0.33703996      -0.06749786      -0.48025286 </v>
   <v>       0.43748622       0.05078224       0.42724366 </v>
   <v>      -0.00174088      -0.23181815       0.49071467 </v>
   <v>      -0.00452976      -0.23236009       0.43545882 </v>
   <v>      -0.00550725      -0.21091132      -0.37764181 </v>
   <v>       0.46425215       0.08393884       0.39922506 </v>
   <v>      -0.37976790      -0.01577288       0.38264279 </v>
   <v>      -0.36184134      -0.02376869       0.33264461 </v>
   <v>      -0.42639213       0.00720451      -0.49052024 </v>
   <v>       0.42843627      -0.03625197      -0.49988098 </v>
   <v>      -0.44470534       0.01866615      -0.44135137 </v>
   <v>       0.46550715       0.00414682       0.46379361 </v>
   <v>      -0.44196383      -0.01630894       0.39404671 </v>
   <v>      -0.46761421      -0.00356728       0.45706094 </v>
   <v>       0.44944297      -0.07279730      -0.47072943 </v>
   <v>      -0.46702000      -0.00963800       0.28126431 </v>
   <v>       0.47636464      -0.06784523       0.34598027 </v>
   <v>      -0.48088881      -0.03207577       0.33606097 </v>
  </varray>
 </structure>
 <varray name="primitive_index" >
  <v type="int" >        1 </v>
  <v type="int" >       84 </v>
  <v type="int" >       60 </v>
  <v type="int" >       43 </v>
  <v type="int" >       62 </v>
  <v type="int" >       56 </v>
  <v type="int" >       17 </v>
  <v type="int" >       86 </v>
  <v type="int" >       28 </v>
  <v type="int" >       57 </v>
  <v type="int" >       12 </v>
  <v type="int" >        3 </v>
  <v type="int" >       79 </v>
  <v type="int" >       61 </v>
  <v type="int" >       87 </v>
  <v type="int" >       36 </v>
  <v type="int" >       58 </v>
  <v type="int" >       10 </v>
  <v type="int" >       88 </v>
  <v type="int" >       27 </v>
  <v type="int" >       46 </v>
  <v type="int" >       49 </v>
  <v type="int" >       18 </v>
  <v type="int" >       50 </v>
  <v type="int" >       30 </v>
  <v type="int" >       89 </v>
  <v type="int" >       64 </v>
  <v type="int" >       80 </v>
  <v type="int" >        9 </v>
  <v type="int" >       69 </v>
  <v type="int" >       59 </v>
  <v type="int" >       21 </v>
  <v type="int" >       66 </v>
  <v type="int" >       70 </v>
  <v type="int" >       24 </v>
  <v type="int" >       22 </v>
  <v type="int" >       23 </v>
  <v type="int" >       90 </v>
  <v type="int" >       77 </v>
  <v type="int" >       42 </v>
  <v type="int" >       68 </v>
  <v type="int" >       67 </v>
  <v type="int" >        2 </v>
  <v type="int" >       81 </v>
  <v type="int" >       71 </v>
  <v type="int" >       52 </v>
  <v type="int" >       63 </v>
  <v type="int" >       16 </v>
  <v type="int" >       51 </v>
  <v type="int" >       26 </v>
  <v type="int" >       73 </v>
  <v type="int" >       76 </v>
  <v type="int" >       74 </v>
  <v type="int" >       72 </v>
  <v type="int" >       85 </v>
  <v type="int" >       75 </v>
  <v type="int" >       29 </v>
  <v type="int" >       11 </v>
  <v type="int" >       91 </v>
  <v type="int" >       38 </v>
  <v type="int" >       39 </v>
  <v type="int" >       83 </v>
  <v type="int" >       25 </v>
  <v type="int" >       41 </v>
  <v type="int" >       37 </v>
  <v type="int" >       92 </v>
  <v type="int" >        8 </v>
  <v type="int" >       40 </v>
  <v type="int" >       78 </v>
  <v type="int" >        6 </v>
  <v type="int" >       35 </v>
  <v type="int" >       53 </v>
  <v type="int" >       45 </v>
  <v type="int" >        7 </v>
  <v type="int" >       19 </v>
  <v type="int" >       93 </v>
  <v type="int" >       14 </v>
  <v type="int" >       94 </v>
  <v type="int" >       33 </v>
  <v type="int" >        4 </v>
  <v type="int" >       55 </v>
  <v type="int" >       54 </v>
  <v type="int" >      101 </v>
  <v type="int" >      102 </v>
  <v type="int" >       65 </v>
  <v type="int" >       32 </v>
  <v type="int" >       95 </v>
  <v type="int" >       82 </v>
  <v type="int" >       44 </v>
  <v type="int" >       20 </v>
  <v type="int" >       48 </v>
  <v type="int" >      100 </v>
  <v type="int" >       47 </v>
  <v type="int" >      103 </v>
  <v type="int" >       97 </v>
  <v type="int" >       34 </v>
  <v type="int" >       96 </v>
  <v type="int" >       99 </v>
  <v type="int" >       98 </v>
  <v type="int" >       31 </v>
  <v type="int" >       13 </v>
  <v type="int" >       15 </v>
  <v type="int" >        5 </v>
 </varray>
 <kpoints>
  <generation param="listgenerated">
   <i name="divisions" type="int">      20 </i>
   <v>       0.00000000       0.00000000       0.00000000 </v>
   <v>       0.50000000       0.00000000       0.00000000 </v>
   <v>       0.50000000       0.50000000       0.00000000 </v>
   <v>       0.00000000       0.00000000       0.00000000 </v>
  </generation>
  <varray name="kpointlist" >
   <v>       0.00000000       0.00000000       0.00000000 </v>
   <v>       0.02631579       0.00000000       0.00000000 </v>
   <v>       0.05263158       0.00000000       0.00000000 </v>
   <v>       0.07894737       0.00000000       0.00000000 </v>
   <v>       0.10526316       0.00000000       0.00000000 </v>
   <v>       0.13157895       0.00000000       0.00000000 </v>
   <v>       0.15789474       0.00000000       0.00000000 </v>
   <v>       0.18421053       0.00000000       0.00000000 </v>
   <v>       0.21052632       0.00000000       0.00000000 </v>
   <v>       0.23684211       0.00000000       0.00000000 </v>
   <v>       0.26315789       0.00000000       0.00000000 </v>
   <v>       0.28947368       0.00000000       0.00000000 </v>
   <v>       0.31578947       0.00000000       0.00000000 </v>
   <v>       0.34210526       0.00000000       0.00000000 </v>
   <v>       0.36842105       0.00000000       0.00000000 </v>
   <v>       0.39473684       0.00000000       0.00000000 </v>
   <v>       0.42105263       0.00000000       0.00000000 </v>
   <v>       0.44736842       0.00000000       0.00000000 </v>
   <v>       0.47368421       0.00000000       0.00000000 </v>
   <v>       0.50000000       0.00000000       0.00000000 </v>
   <v>       0.50000000       0.00000000       0.00000000 </v>
   <v>       0.50000000       0.02631579       0.00000000 </v>
   <v>       0.50000000       0.05263158       0.00000000 </v>
   <v>       0.50000000       0.07894737       0.00000000 </v>
   <v>       0.50000000       0.10526316       0.00000000 </v>
   <v>       0.50000000       0.13157895       0.00000000 </v>
   <v>       0.50000000       0.15789474       0.00000000 </v>
   <v>       0.50000000       0.18421053       0.00000000 </v>
   <v>       0.50000000       0.21052632       0.00000000 </v>
   <v>       0.50000000       0.23684211       0.00000000 </v>
   <v>       0.50000000       0.26315789       0.00000000 </v>
   <v>       0.50000000       0.28947368       0.00000000 </v>
   <v>       0.50000000       0.31578947       0.00000000 </v>
   <v>       0.50000000       0.34210526       0.00000000 </v>
   <v>       0.50000000       0.36842105       0.00000000 </v>
   <v>       0.50000000       0.39473684       0.00000000 </v>
   <v>       0.50000000       0.42105263       0.00000000 </v>
   <v>       0.50000000       0.44736842       0.00000000 </v>
   <v>       0.50000000       0.47368421       0.00000000 </v>
   <v>       0.50000000       0.50000000       0.00000000 </v>
   <v>       0.50000000       0.50000000       0.00000000 </v>
   <v>       0.47368421       0.47368421       0.00000000 </v>
   <v>       0.44736842       0.44736842       0.00000000 </v>
   <v>       0.42105263       0.42105263       0.00000000 </v>
   <v>       0.39473684       0.39473684       0.00000000 </v>
   <v>       0.36842105       0.36842105       0.00000000 </v>
   <v>       0.34210526       0.34210526       0.00000000 </v>
   <v>       0.31578947       0.31578947       0.00000000 </v>
   <v>       0.28947368       0.28947368       0.00000000 </v>
   <v>       0.26315789       0.26315789       0.00000000 </v>
   <v>       0.23684211       0.23684211       0.00000000 </v>
   <v>       0.21052632       0.21052632       0.00000000 </v>
   <v>       0.18421053       0.18421053       0.00000000 </v>
   <v>       0.15789474       0.15789474       0.00000000 </v>
   <v>       0.13157895       0.13157895       0.00000000 </v>
   <v>       0.10526316       0.10526316       0.00000000 </v>
   <v>       0.07894737       0.07894737       0.00000000 </v>
   <v>       0.05263158       0.05263158       0.00000000 </v>
   <v>       0.02631579       0.02631579       0.00000000 </v>
   <v>       0.00000000       0.00000000       0.00000000 </v>
  </varray>
  <varray name="weights" >
   <v>       0.01666667 </v>
   <v>       0.01666667 </v>
   <v>       0.01666667 </v>
   <v>       0.01666667 </v>
   <v>       0.01666667 </v>
   <v>       0.01666667 </v>
   <v>       0.01666667 </v>
   <v>       0.01666667 </v>
   <v>       0.01666667 </v>
   <v>       0.01666667 </v>
   <v>       0.01666667 </v>
   <v>       0.01666667 </v>
   <v>       0.01666667 </v>
   <v>       0.01666667 </v>
   <v>       0.01666667 </v>
   <v>       0.01666667 </v>
   <v>       0.01666667 </v>
   <v>       0.01666667 </v>
   <v>       0.01666667 </v>
   <v>       0.01666667 </v>
   <v>       0.01666667 </v>
   <v>       0.01666667 </v>
   <v>       0.01666667 </v>
   <v>       0.01666667 </v>
   <v>       0.01666667 </v>
   <v>       0.01666667 </v>
   <v>       0.01666667 </v>
   <v>       0.01666667 </v>
   <v>       0.01666667 </v>
   <v>       0.01666667 </v>
   <v>       0.01666667 </v>
   <v>       0.01666667 </v>
   <v>       0.01666667 </v>
   <v>       0.01666667 </v>
   <v>       0.01666667 </v>
   <v>       0.01666667 </v>
   <v>       0.01666667 </v>
   <v>       0.01666667 </v>
   <v>       0.01666667 </v>
   <v>       0.01666667 </v>
   <v>       0.01666667 </v>
   <v>       0.01666667 </v>
   <v>       0.01666667 </v>
   <v>       0.01666667 </v>
   <v>       0.01666667 </v>
   <v>       0.01666667 </v>
   <v>       0.01666667 </v>
   <v>       0.01666667 </v>
   <v>       0.01666667 </v>
   <v>       0.01666667 </v>
   <v>       0.01666667 </v>
   <v>       0.01666667 </v>
   <v>       0.01666667 </v>
   <v>       0.01666667 </v>
   <v>       0.01666667 </v>
   <v>       0.01666667 </v>
   <v>       0.01666667 </v>
   <v>       0.01666667 </v>
   <v>       0.01666667 </v>
   <v>       0.01666667 </v>
  </varray>
 </kpoints>
 <parameters>
  <separator name="general" >
   <i type="string" name="SYSTEM">Simulation for cell shape cell volume r</i>
   <i type="logical" name="LCOMPAT"> F  </i>
  </separator>
  <separator name="electronic" >
   <i type="string" name="PREC">high</i>
   <i name="ENMAX">    500.00000000</i>
   <i name="ENAUG">    644.87300000</i>
   <i name="EDIFF">      0.00001000</i>
   <i type="int" name="IALGO">    38</i>
   <i type="int" name="IWAVPR">    10</i>
   <i type="int" name="NBANDS">   224</i>
   <i name="NELECT">    340.00000000</i>
   <i type="int" name="TURBO">     0</i>
   <i type="int" name="IRESTART">     0</i>
   <i type="int" name="NREBOOT">     0</i>
   <i type="int" name="NMIN">     0</i>
   <i name="EREF">      0.00000000</i>
   <separator name="electronic smearing" >
    <i type="int" name="ISMEAR">     0</i>
    <i name="SIGMA">      0.01000000</i>
    <i name="KSPACING">      0.50000000</i>
    <i type="logical" name="KGAMMA"> T  </i>
   </separator>
   <separator name="electronic projectors" >
    <i type="logical" name="LREAL"> T  </i>
    <v name="ROPT">     -0.00040000     -0.00040000     -0.00040000     -0.00040000</v>
    <i type="int" name="LMAXPAW">  -100</i>
    <i type="int" name="LMAXMIX">     2</i>
    <i type="logical" name="NLSPLINE"> F  </i>
   </separator>
   <separator name="electronic startup" >
    <i type="int" name="ISTART">     1</i>
    <i type="int" name="ICHARG">    11</i>
    <i type="int" name="INIWAV">     1</i>
   </separator>
   <separator name="electronic spin" >
    <i type="int" name="ISPIN">     1</i>
    <i type="logical" name="LNONCOLLINEAR"> F  </i>
    <v name="MAGMOM">      1.00000000      1.00000000      1.00000000      1.00000000      1.00000000      1.00000000      1.00000000      1.00000000      1.00000000      1.00000000      1.00000000      1.00000000      1.00000000      1.00000000      1.00000000      1.00000000      1.00000000      1.00000000      1.00000000      1.00000000
      1.00000000      1.00000000      1.00000000      1.00000000      1.00000000      1.00000000      1.00000000      1.00000000      1.00000000      1.00000000      1.00000000      1.00000000      1.00000000      1.00000000      1.00000000      1.00000000      1.00000000      1.00000000      1.00000000      1.00000000
      1.00000000      1.00000000      1.00000000      1.00000000      1.00000000      1.00000000      1.00000000      1.00000000      1.00000000      1.00000000      1.00000000      1.00000000      1.00000000      1.00000000      1.00000000      1.00000000      1.00000000      1.00000000      1.00000000      1.00000000
      1.00000000      1.00000000      1.00000000      1.00000000      1.00000000      1.00000000      1.00000000      1.00000000      1.00000000      1.00000000      1.00000000      1.00000000      1.00000000      1.00000000      1.00000000      1.00000000      1.00000000      1.00000000      1.00000000      1.00000000
      1.00000000      1.00000000      1.00000000      1.00000000      1.00000000      1.00000000      1.00000000      1.00000000      1.00000000      1.00000000      1.00000000      1.00000000      1.00000000      1.00000000      1.00000000      1.00000000      1.00000000      1.00000000      1.00000000      1.00000000
      1.00000000      1.00000000      1.00000000</v>
    <i name="NUPDOWN">     -1.00000000</i>
    <i type="logical" name="LSORBIT"> F  </i>
    <v name="SAXIS">      0.00000000      0.00000000      1.00000000</v>
    <i type="logical" name="LSPIRAL"> F  </i>
    <v name="QSPIRAL">      0.00000000      0.00000000      0.00000000</v>
    <i type="logical" name="LZEROZ"> F  </i>
   </separator>
   <separator name="electronic exchange-correlation" >
    <i type="logical" name="LASPH"> F  </i>
    <i type="logical" name="LMETAGGA"> F  </i>
   </separator>
   <separator name="electronic convergence" >
    <i type="int" name="NELM">   200</i>
    <i type="int" name="NELMDL">     0</i>
    <i type="int" name="NELMIN">     2</i>
    <i name="ENINI">    500.00000000</i>
    <separator name="electronic convergence detail" >
     <i type="logical" name="LDIAG"> T  </i>
     <i type="logical" name="LSUBROT"> F  </i>
     <i name="WEIMIN">      0.00000000</i>
     <i name="EBREAK">      0.00000001</i>
     <i name="DEPER">      0.30000000</i>
     <i type="int" name="NRMM">     4</i>
     <i name="TIME">      0.40000000</i>
    </separator>
   </separator>
   <separator name="electronic mixer" >
    <i name="AMIX">      0.40000000</i>
    <i name="BMIX">      1.00000000</i>
    <i name="AMIN">      0.10000000</i>
    <i name="AMIX_MAG">      1.60000000</i>
    <i name="BMIX_MAG">      1.00000000</i>
    <separator name="electronic mixer details" >
     <i type="int" name="IMIX">     4</i>
     <i type="logical" name="MIXFIRST"> F  </i>
     <i type="int" name="MAXMIX">   -45</i>
     <i name="WC">    100.00000000</i>
     <i type="int" name="INIMIX">     1</i>
     <i type="int" name="MIXPRE">     1</i>
     <i type="int" name="MREMOVE">     5</i>
    </separator>
   </separator>
   <separator name="electronic dipolcorrection" >
    <i type="logical" name="LDIPOL"> F  </i>
    <i type="logical" name="LMONO"> F  </i>
    <i type="int" name="IDIPOL">     0</i>
    <i name="EPSILON">      1.00000000</i>
    <v name="DIPOL">   -100.00000000   -100.00000000   -100.00000000</v>
    <i name="EFIELD">      0.00000000</i>
   </separator>
  </separator>
  <separator name="grids" >
   <i type="int" name="NGX">   160</i>
   <i type="int" name="NGY">   160</i>
   <i type="int" name="NGZ">   150</i>
   <i type="int" name="NGXF">   250</i>
   <i type="int" name="NGYF">   250</i>
   <i type="int" name="NGZF">   224</i>
   <i type="logical" name="ADDGRID"> F  </i>
  </separator>
  <separator name="ionic" >
   <i type="int" name="NSW">     0</i>
   <i type="int" name="IBRION">    -1</i>
   <i type="int" name="MDALGO">     0</i>
   <i type="int" name="ISIF">     2</i>
   <i name="PSTRESS">      0.00000000</i>
   <i name="EDIFFG">     -0.01000000</i>
   <i type="int" name="NFREE">     0</i>
   <i name="POTIM">      0.30000000</i>
   <i name="SMASS">     -3.00000000</i>
   <i name="SCALEE">      1.00000000</i>
  </separator>
  <separator name="ionic md" >
   <i name="TEBEG">      0.00010000</i>
   <i name="TEEND">      0.00010000</i>
   <i type="int" name="NBLOCK">     1</i>
   <i type="int" name="KBLOCK">     1</i>
   <i type="int" name="NPACO">   256</i>
   <i name="APACO">     16.00000000</i>
  </separator>
  <separator name="symmetry" >
   <i type="int" name="ISYM">     2</i>
   <i name="SYMPREC">      0.00001000</i>
  </separator>
  <separator name="dos" >
   <i type="int" name="LORBIT">     0</i>
   <v name="RWIGS">     -1.00000000     -1.00000000     -1.00000000     -1.00000000</v>
   <i type="int" name="NEDOS">   301</i>
   <i name="EMIN">     10.00000000</i>
   <i name="EMAX">    -10.00000000</i>
   <i name="EFERMI">      0.00000000</i>
  </separator>
  <separator name="writing" >
   <i type="int" name="NWRITE">     0</i>
   <i type="logical" name="LWAVE"> F  </i>
   <i type="logical" name="LDOWNSAMPLE"> F  </i>
   <i type="logical" name="LCHARG"> F  </i>
   <i type="logical" name="LPARD"> F  </i>
   <i type="logical" name="LVTOT"> F  </i>
   <i type="logical" name="LVHAR"> F  </i>
   <i type="logical" name="LELF"> F  </i>
   <i type="logical" name="LOPTICS"> F  </i>
   <v name="STM">      0.00000000      0.00000000      0.00000000      0.00000000      0.00000000      0.00000000      0.00000000</v>
  </separator>
  <separator name="performance" >
   <i type="int" name="NPAR">    16</i>
   <i type="int" name="NSIM">     4</i>
   <i type="int" name="NBLK">    -1</i>
   <i type="logical" name="LPLANE"> T  </i>
   <i type="logical" name="LSCALAPACK"> T  </i>
   <i type="logical" name="LSCAAWARE"> F  </i>
   <i type="logical" name="LSCALU"> F  </i>
   <i type="logical" name="LASYNC"> F  </i>
   <i type="logical" name="LORBITALREAL"> F  </i>
  </separator>
  <separator name="miscellaneous" >
   <i type="int" name="IDIOT">     3</i>
   <i type="int" name="ISPECIAL">     0</i>
   <i type="logical" name="LMUSIC"> F  </i>
   <v name="POMASS">     14.00100000     16.00000000      1.00000000     12.01100000</v>
   <v name="DARWINR">      0.00000000      0.00000000      0.00000000      0.00000000</v>
   <v name="DARWINV">      1.00000000      1.00000000      1.00000000      1.00000000</v>
   <i type="logical" name="LCORR"> T  </i>
  </separator>
  <i type="logical" name="GGA_COMPAT"> T  </i>
  <i type="logical" name="LBERRY"> F  </i>
  <i type="int" name="ICORELEVEL">     0</i>
  <i type="logical" name="LDAU"> F  </i>
  <i type="int" name="I_CONSTRAINED_M">     0</i>
  <separator name="electronic exchange-correlation" >
   <i type="string" name="GGA">PE</i>
   <i type="int" name="VOSKOWN">     0</i>
   <i type="logical" name="LHFCALC"> F  </i>
   <i type="string" name="PRECFOCK"></i>
   <i type="logical" name="LSYMGRAD"> F  </i>
   <i type="logical" name="LHFONE"> F  </i>
   <i type="logical" name="LRHFCALC"> F  </i>
   <i type="logical" name="LTHOMAS"> F  </i>
   <i type="logical" name="LMODELHF"> F  </i>
   <i name="ENCUT4O">     -1.00000000</i>
   <i type="int" name="EXXOEP">     0</i>
   <i type="int" name="FOURORBIT">     0</i>
   <i name="AEXX">      0.00000000</i>
   <i name="HFALPHA">      0.00000000</i>
   <i name="MCALPHA">      0.00000000</i>
   <i name="ALDAX">      1.00000000</i>
   <i name="AGGAX">      1.00000000</i>
   <i name="ALDAC">      1.00000000</i>
   <i name="AGGAC">      1.00000000</i>
   <i type="int" name="NKREDX">     1</i>
   <i type="int" name="NKREDY">     1</i>
   <i type="int" name="NKREDZ">     1</i>
   <i type="logical" name="SHIFTRED"> F  </i>
   <i type="logical" name="ODDONLY"> F  </i>
   <i type="logical" name="EVENONLY"> F  </i>
   <i type="int" name="LMAXFOCK">     0</i>
   <i type="int" name="NMAXFOCKAE">     0</i>
   <i type="logical" name="LFOCKAEDFT"> F  </i>
   <i name="HFSCREEN">      0.00000000</i>
   <i name="HFSCREENC">      0.00000000</i>
   <i type="int" name="NBANDSGWLOW">     0</i>
  </separator>
  <separator name="vdW DFT" >
   <i type="logical" name="LUSE_VDW"> F  </i>
   <i name="Zab_VDW">     -0.84910000</i>
   <i name="PARAM1">      0.12340000</i>
   <i name="PARAM2">      1.00000000</i>
   <i name="PARAM3">      0.00000000</i>
  </separator>
  <separator name="model GW" >
   <i type="int" name="MODEL_GW">     0</i>
   <i name="MODEL_EPS0">     55.98185407</i>
   <i name="MODEL_ALPHA">      1.00000000</i>
  </separator>
  <separator name="linear response parameters" >
   <i type="logical" name="LEPSILON"> F  </i>
   <i type="logical" name="LRPA"> F  </i>
   <i type="logical" name="LNABLA"> F  </i>
   <i type="logical" name="LVEL"> F  </i>
   <i type="int" name="KINTER">     0</i>
   <i name="CSHIFT">      0.10000000</i>
   <i name="OMEGAMAX">     -1.00000000</i>
   <i name="DEG_THRESHOLD">      0.00200000</i>
   <i name="RTIME">     -0.10000000</i>
   <i name="WPLASMAI">      0.00000000</i>
   <v name="DFIELD">      0.00000000      0.00000000      0.00000000</v>
   <v name="WPLASMA">      0.00000000      0.00000000      0.00000000      0.00000000      0.00000000      0.00000000      0.00000000      0.00000000      0.00000000</v>
  </separator>
  <separator name="orbital magnetization" >
   <i type="logical" name="NUCIND"> F  </i>
   <v name="MAGPOS">      0.00000000      0.00000000      0.00000000</v>
   <i type="logical" name="LNICSALL"> T  </i>
   <i type="logical" name="ORBITALMAG"> F  </i>
   <i type="logical" name="LMAGBLOCH"> F  </i>
   <i type="logical" name="LCHIMAG"> F  </i>
   <i type="logical" name="LGAUGE"> T  </i>
   <i type="int" name="MAGATOM">     0</i>
   <v name="MAGDIPOL">      0.00000000      0.00000000      0.00000000</v>
   <v name="AVECCONST">      0.00000000      0.00000000      0.00000000</v>
  </separator>
  <separator name="response functions" >
   <i type="logical" name="LADDER"> F  </i>
   <i type="logical" name="LRPAFORCE"> F  </i>
   <i type="logical" name="LFXC"> F  </i>
   <i type="logical" name="LHARTREE"> T  </i>
   <i type="int" name="IBSE">     0</i>
   <v type="int" name="KPOINT">    -1     0     0     0</v>
   <i type="logical" name="LTCTE"> F  </i>
   <i type="logical" name="LTETE"> F  </i>
   <i type="logical" name="LTRIPLET"> F  </i>
   <i type="logical" name="LFXCEPS"> F  </i>
   <i type="logical" name="LFXHEG"> F  </i>
   <i type="int" name="NATURALO">     2</i>
   <i type="logical" name="L2ORDER"> F  </i>
   <i type="logical" name="LMP2LT"> F  </i>
   <i type="logical" name="LUSEW"> F  </i>
   <i name="ENCUTGW">     -2.00000000</i>
   <i name="ENCUTGWSOFT">     -2.00000000</i>
   <i name="ENCUTLF">     -1.00000000</i>
   <i type="int" name="LMAXMP2">    -1</i>
   <i name="SCISSOR">      0.00000000</i>
   <i type="int" name="NOMEGA">     0</i>
   <i type="int" name="NOMEGAR">     0</i>
   <i type="int" name="NBANDSGW">    -1</i>
   <i type="int" name="NBANDSO">    -1</i>
   <i type="int" name="NBANDSV">    -1</i>
   <i type="int" name="NELM">   200</i>
   <i type="int" name="NELMHF">     1</i>
   <i type="int" name="DIM">     3</i>
   <i type="int" name="ANTIRES">     0</i>
   <i name="OMEGAMAX">    -30.00000000</i>
   <i name="OMEGAMIN">    -30.00000000</i>
   <i name="OMEGATL">   -200.00000000</i>
   <i type="int" name="OMEGAGRID">   140</i>
   <i name="CSHIFT">     -0.10000000</i>
   <i type="logical" name="SELFENERGY"> F  </i>
   <i type="logical" name="LSPECTRAL"> F  </i>
   <i type="logical" name="LSPECTRALGW"> F  </i>
   <i type="logical" name="LSINGLES"> F  </i>
   <i type="logical" name="LFERMIGW"> F  </i>
   <i type="logical" name="ODDONLYGW"> F  </i>
   <i type="logical" name="EVENONLYGW"> F  </i>
   <i type="int" name="NKREDLFX">     1</i>
   <i type="int" name="NKREDLFY">     1</i>
   <i type="int" name="NKREDLFZ">     1</i>
   <i type="int" name="MAXMEM">  2800</i>
   <i type="int" name="TELESCOPE">     0</i>
   <i type="int" name="TAUPAR">     1</i>
   <i type="int" name="OMEGAPAR">    -1</i>
   <i name="LAMBDA">      1.00000000</i>
  </separator>
  <separator name="External order field" >
   <i name="OFIELD_KAPPA">      0.00000000</i>
   <v name="OFIELD_K">      0.00000000      0.00000000      0.00000000</v>
   <i name="OFIELD_Q6_NEAR">      0.00000000</i>
   <i name="OFIELD_Q6_FAR">      0.00000000</i>
   <i name="OFIELD_A">      0.00000000</i>
  </separator>
  <separator name="solvation model" >
   <i type="logical" name="LSOL"> F  </i>
  </separator>
 </parameters>
 <atominfo>
  <atoms>     103 </atoms>
  <types>       4 </types>
  <array name="atoms" >
   <dimension dim="1">ion</dimension>
   <field type="string">element</field>
   <field type="int">atomtype</field>
   <set>
    <rc><c>N </c><c>   1</c></rc>
    <rc><c>N </c><c>   1</c></rc>
    <rc><c>N </c><c>   1</c></rc>
    <rc><c>N </c><c>   1</c></rc>
    <rc><c>N </c><c>   1</c></rc>
    <rc><c>N </c><c>   1</c></rc>
    <rc><c>N </c><c>   1</c></rc>
    <rc><c>N </c><c>   1</c></rc>
    <rc><c>O </c><c>   2</c></rc>
    <rc><c>O </c><c>   2</c></rc>
    <rc><c>O </c><c>   2</c></rc>
    <rc><c>O </c><c>   2</c></rc>
    <rc><c>O </c><c>   2</c></rc>
    <rc><c>O </c><c>   2</c></rc>
    <rc><c>O </c><c>   2</c></rc>
    <rc><c>O </c><c>   2</c></rc>
    <rc><c>H </c><c>   3</c></rc>
    <rc><c>H </c><c>   3</c></rc>
    <rc><c>H </c><c>   3</c></rc>
    <rc><c>H </c><c>   3</c></rc>
    <rc><c>H </c><c>   3</c></rc>
    <rc><c>H </c><c>   3</c></rc>
    <rc><c>H </c><c>   3</c></rc>
    <rc><c>H </c><c>   3</c></rc>
    <rc><c>H </c><c>   3</c></rc>
    <rc><c>H </c><c>   3</c></rc>
    <rc><c>H </c><c>   3</c></rc>
    <rc><c>H </c><c>   3</c></rc>
    <rc><c>H </c><c>   3</c></rc>
    <rc><c>H </c><c>   3</c></rc>
    <rc><c>H </c><c>   3</c></rc>
    <rc><c>H </c><c>   3</c></rc>
    <rc><c>H </c><c>   3</c></rc>
    <rc><c>H </c><c>   3</c></rc>
    <rc><c>H </c><c>   3</c></rc>
    <rc><c>H </c><c>   3</c></rc>
    <rc><c>H </c><c>   3</c></rc>
    <rc><c>H </c><c>   3</c></rc>
    <rc><c>H </c><c>   3</c></rc>
    <rc><c>H </c><c>   3</c></rc>
    <rc><c>H </c><c>   3</c></rc>
    <rc><c>H </c><c>   3</c></rc>
    <rc><c>H </c><c>   3</c></rc>
    <rc><c>H </c><c>   3</c></rc>
    <rc><c>H </c><c>   3</c></rc>
    <rc><c>H </c><c>   3</c></rc>
    <rc><c>H </c><c>   3</c></rc>
    <rc><c>H </c><c>   3</c></rc>
    <rc><c>C </c><c>   4</c></rc>
    <rc><c>C </c><c>   4</c></rc>
    <rc><c>C </c><c>   4</c></rc>
    <rc><c>C </c><c>   4</c></rc>
    <rc><c>C </c><c>   4</c></rc>
    <rc><c>C </c><c>   4</c></rc>
    <rc><c>C </c><c>   4</c></rc>
    <rc><c>C </c><c>   4</c></rc>
    <rc><c>C </c><c>   4</c></rc>
    <rc><c>C </c><c>   4</c></rc>
    <rc><c>C </c><c>   4</c></rc>
    <rc><c>C </c><c>   4</c></rc>
    <rc><c>C </c><c>   4</c></rc>
    <rc><c>C </c><c>   4</c></rc>
    <rc><c>C </c><c>   4</c></rc>
    <rc><c>C </c><c>   4</c></rc>
    <rc><c>C </c><c>   4</c></rc>
    <rc><c>C </c><c>   4</c></rc>
    <rc><c>C </c><c>   4</c></rc>
    <rc><c>C </c><c>   4</c></rc>
    <rc><c>C </c><c>   4</c></rc>
    <rc><c>C </c><c>   4</c></rc>
    <rc><c>C </c><c>   4</c></rc>
    <rc><c>C </c><c>   4</c></rc>
    <rc><c>C </c><c>   4</c></rc>
    <rc><c>C </c><c>   4</c></rc>
    <rc><c>C </c><c>   4</c></rc>
    <rc><c>C </c><c>   4</c></rc>
    <rc><c>C </c><c>   4</c></rc>
    <rc><c>C </c><c>   4</c></rc>
    <rc><c>C </c><c>   4</c></rc>
    <rc><c>C </c><c>   4</c></rc>
    <rc><c>C </c><c>   4</c></rc>
    <rc><c>C </c><c>   4</c></rc>
    <rc><c>C </c><c>   4</c></rc>
    <rc><c>C </c><c>   4</c></rc>
    <rc><c>C </c><c>   4</c></rc>
    <rc><c>C </c><c>   4</c></rc>
    <rc><c>C </c><c>   4</c></rc>
    <rc><c>C </c><c>   4</c></rc>
    <rc><c>C </c><c>   4</c></rc>
    <rc><c>C </c><c>   4</c></rc>
    <rc><c>C </c><c>   4</c></rc>
    <rc><c>C </c><c>   4</c></rc>
    <rc><c>C </c><c>   4</c></rc>
    <rc><c>C </c><c>   4</c></rc>
    <rc><c>C </c><c>   4</c></rc>
    <rc><c>C </c><c>   4</c></rc>
    <rc><c>C </c><c>   4</c></rc>
    <rc><c>C </c><c>   4</c></rc>
    <rc><c>C </c><c>   4</c></rc>
    <rc><c>C </c><c>   4</c></rc>
    <rc><c>C </c><c>   4</c></rc>
    <rc><c>C </c><c>   4</c></rc>
    <rc><c>C </c><c>   4</c></rc>
   </set>
  </array>
  <array name="atomtypes" >
   <dimension dim="1">type</dimension>
   <field type="int">atomspertype</field>
   <field type="string">element</field>
   <field>mass</field>
   <field>valence</field>
   <field type="string">pseudopotential</field>
   <set>
    <rc><c>   8</c><c>N </c><c>     14.00100000</c><c>      5.00000000</c><c>  PAW_PBE N 08Apr2002                   </c></rc>
    <rc><c>   8</c><c>O </c><c>     16.00000000</c><c>      6.00000000</c><c>  PAW_PBE O 08Apr2002                   </c></rc>
    <rc><c>  32</c><c>H </c><c>      1.00000000</c><c>      1.00000000</c><c>  PAW_PBE H 15Jun2001                   </c></rc>
    <rc><c>  55</c><c>C </c><c>     12.01100000</c><c>      4.00000000</c><c>  PAW_PBE C 08Apr2002                   </c></rc>
   </set>
  </array>
 </atominfo>
 <structure name="initialpos" >
  <crystal>
   <varray name="basis" >
    <v>      21.95362151       0.02333032       0.00000000 </v>
    <v>       0.02261993      21.88757065       0.00000000 </v>
    <v>       0.00000000       0.00000000      20.00000000 </v>
   </varray>
   <i name="volume">   9610.21828237 </i>
   <varray name="rec_basis" >
    <v>       0.04555062      -0.00004707       0.00000000 </v>
    <v>      -0.00004855       0.04568808       0.00000000 </v>
    <v>       0.00000000       0.00000000       0.05000000 </v>
   </varray>
  </crystal>
  <varray name="positions" >
   <v>       0.01153585       0.27682648       0.50873949 </v>
   <v>       0.02511706       0.56226125       0.35147446 </v>
   <v>       0.91604296       0.33175191       0.41743359 </v>
   <v>       0.00147578       0.71979905       0.52708098 </v>
   <v>       0.51911119       0.96792423       0.33606097 </v>
   <v>       0.34820113       0.10461028       0.38385828 </v>
   <v>       0.72172098       0.99688462       0.41585886 </v>
   <v>       0.27651497       0.00636720       0.43629246 </v>
   <v>       0.00257208       0.51405349       0.33040147 </v>
   <v>       0.89491017       0.35085596       0.36375224 </v>
   <v>       0.05583605       0.59829324       0.31746015 </v>
   <v>       0.89580888       0.28725403       0.44894671 </v>
   <v>       0.53298000       0.99036200       0.28126431 </v>
   <v>       0.38171681       0.13038707       0.34246571 </v>
   <v>       0.47636464       0.93215477       0.34598027 </v>
   <v>       0.29380409       0.11795095       0.39358121 </v>
   <v>       0.00083661       0.21313199       0.60946542 </v>
   <v>       0.99192240       0.11511643       0.67234092 </v>
   <v>       0.99036822       0.89044980       0.67923996 </v>
   <v>       0.99449275       0.78908868       0.62235819 </v>
   <v>       0.11288230       0.99856904       0.52273411 </v>
   <v>       0.88036076       0.99505110       0.51458764 </v>
   <v>       0.94575904       0.00263119       0.65333568 </v>
   <v>       0.02463981       0.00210754       0.66444293 </v>
   <v>       0.76709219       0.99013534       0.50895714 </v>
   <v>       0.22605385       0.00942371       0.52506179 </v>
   <v>       0.09669084       0.46340369       0.52129387 </v>
   <v>       0.09635204       0.35146629       0.53872430 </v>
   <v>       0.98903454       0.62976528       0.60448169 </v>
   <v>       0.99385007       0.51908875       0.57657123 </v>
   <v>       0.44944297       0.92720270       0.52927057 </v>
   <v>       0.33703996       0.93250214       0.51974714 </v>
   <v>       0.66668505       0.01654759       0.54151841 </v>
   <v>       0.55529466       0.01866615       0.55864863 </v>
   <v>       0.99981004       0.88001364       0.43185021 </v>
   <v>       0.00610060       0.11235736       0.42499844 </v>
   <v>       0.21340230       0.99547814       0.33809013 </v>
   <v>       0.11565904       0.99276380       0.27490537 </v>
   <v>       0.89251000       0.00151803       0.26711366 </v>
   <v>       0.79111763       0.00109272       0.32332581 </v>
   <v>       0.00226239       0.95776169       0.28686213 </v>
   <v>       0.00473224       0.03746841       0.28837078 </v>
   <v>       0.01236260       0.22409003       0.42146374 </v>
   <v>       0.99547024       0.76763991       0.43545882 </v>
   <v>       0.02090597       0.67286408       0.39692805 </v>
   <v>       0.93137533       0.44847795       0.40607394 </v>
   <v>       0.63815866       0.97623131       0.33264461 </v>
   <v>       0.46425215       0.08393884       0.39922506 </v>
   <v>       0.99800621       0.05714616       0.51421287 </v>
   <v>       0.99413588       0.05841526       0.58404696 </v>
   <v>       0.99307844       0.94243100       0.58757237 </v>
   <v>       0.99631471       0.93987743       0.51771823 </v>
   <v>       0.99267447       0.88772492       0.62473995 </v>
   <v>       0.99487699       0.83147067       0.59382206 </v>
   <v>       0.99714174       0.82805860       0.52334415 </v>
   <v>       0.00416662       0.16875990       0.51312605 </v>
   <v>       0.99994525       0.16936668       0.58350645 </v>
   <v>       0.99501150       0.11493886       0.61780906 </v>
   <v>       0.98916803       0.00148062       0.62529058 </v>
   <v>       0.01291898       0.33583975       0.48546623 </v>
   <v>       0.06041457       0.43581742       0.49949437 </v>
   <v>       0.06053356       0.37327111       0.50940950 </v>
   <v>       0.99608281       0.61472619       0.55308677 </v>
   <v>       0.99871591       0.55319936       0.53719305 </v>
   <v>       0.36528389       0.96698635       0.49560172 </v>
   <v>       0.94071139       0.99737560       0.42912124 </v>
   <v>       0.94363945       0.99838766       0.35920101 </v>
   <v>       0.05912292       0.99489423       0.36315964 </v>
   <v>       0.05782286       0.99575359       0.43311760 </v>
   <v>       0.11344243       0.99674170       0.46810616 </v>
   <v>       0.16930401       0.99695653       0.43455753 </v>
   <v>       0.16978413       0.99469036       0.36403035 </v>
   <v>       0.11547996       0.99352639       0.32952359 </v>
   <v>       0.88940721       0.00018985       0.32162709 </v>
   <v>       0.83318149       0.99996666       0.35215421 </v>
   <v>       0.82925070       0.99751113       0.42259332 </v>
   <v>       0.88310630       0.99660426       0.46002469 </v>
   <v>       0.99784126       0.88234027       0.48641645 </v>
   <v>       0.00289377       0.11281604       0.47953046 </v>
   <v>       0.99806534       0.99738852       0.47354065 </v>
   <v>       0.00253202       0.99710202       0.32148729 </v>
   <v>       0.99825912       0.76818185       0.49071467 </v>
   <v>       0.76890437       0.99491371       0.45387370 </v>
   <v>       0.00969534       0.22642294       0.47654781 </v>
   <v>       0.22730615       0.00358090       0.47016441 </v>
   <v>       0.96794021       0.36530645       0.44580186 </v>
   <v>       0.96823528       0.42846813       0.43514869 </v>
   <v>       0.01302136       0.46499653       0.46405514 </v>
   <v>       0.00742688       0.53244117       0.47118426 </v>
   <v>       0.01403866       0.57832301       0.42223196 </v>
   <v>       0.01288107       0.64057184       0.43741122 </v>
   <v>       0.00303805       0.65990570       0.50354246 </v>
   <v>       0.33615727       0.01122383       0.45510446 </v>
   <v>       0.37440887       0.05505277       0.42391161 </v>
   <v>       0.43748622       0.05078224       0.42724366 </v>
   <v>       0.46550715       0.00414682       0.46379361 </v>
   <v>       0.42843627       0.96374803       0.50011902 </v>
   <v>       0.53238579       0.99643272       0.45706094 </v>
   <v>       0.55803617       0.98369106       0.39404671 </v>
   <v>       0.62023210       0.98422712       0.38264279 </v>
   <v>       0.66097790       0.99536168       0.43542505 </v>
   <v>       0.63655671       0.00636403       0.49961055 </v>
   <v>       0.57360787       0.00720451       0.50947976 </v>
  </varray>
 </structure>
 <calculation>
  <scstep>
   <time name="dav">  145.75  147.27</time>
   <time name="total">  145.91  147.45</time>
   <energy>
    <i name="alphaZ">     55.37313346 </i>
    <i name="ewald">  40244.20476188 </i>
    <i name="hartreedc"> -51856.16845608 </i>
    <i name="XCdc">   1228.68422807 </i>
    <i name="pawpsdc">  31049.99810005 </i>
    <i name="pawaedc"> -31114.69563241 </i>
    <i name="eentropy">     -0.00000000 </i>
    <i name="bandstr">  -4393.70435195 </i>
    <i name="atom">  14067.85922051 </i>
    <i name="e_fr_energy">   -718.44899648 </i>
    <i name="e_wo_entrp">   -718.44899648 </i>
    <i name="e_0_energy">   -718.44899648 </i>
   </energy>
  </scstep>
  <scstep>
   <time name="dav">  164.61  166.38</time>
   <time name="total">  164.62  166.38</time>
   <energy>
    <i name="e_fr_energy">   -719.22603669 </i>
    <i name="e_wo_entrp">   -719.22603669 </i>
    <i name="e_0_energy">   -719.22603669 </i>
   </energy>
  </scstep>
  <scstep>
   <time name="dav">  188.72  190.64</time>
   <time name="total">  188.73  190.65</time>
   <energy>
    <i name="e_fr_energy">   -719.25090134 </i>
    <i name="e_wo_entrp">   -719.25090134 </i>
    <i name="e_0_energy">   -719.25090134 </i>
   </energy>
  </scstep>
  <scstep>
   <time name="dav">  162.16  163.85</time>
   <time name="total">  162.17  163.86</time>
   <energy>
    <i name="e_fr_energy">   -719.25132204 </i>
    <i name="e_wo_entrp">   -719.25132204 </i>
    <i name="e_0_energy">   -719.25132204 </i>
   </energy>
  </scstep>
  <scstep>
   <time name="dav">  166.36  168.04</time>
   <time name="total">  166.36  168.04</time>
   <energy>
    <i name="e_fr_energy">   -719.25134616 </i>
    <i name="e_wo_entrp">   -719.25134616 </i>
    <i name="e_0_energy">   -719.25134616 </i>
   </energy>
  </scstep>
  <scstep>
   <time name="dav">  128.10  129.34</time>
   <time name="total">  128.11  129.35</time>
   <energy>
    <i name="alphaZ">     55.37313346 </i>
    <i name="ewald">  40244.20476188 </i>
    <i name="hartreedc"> -51856.16845608 </i>
    <i name="XCdc">   1228.68422807 </i>
    <i name="pawpsdc">  31049.99810005 </i>
    <i name="pawaedc"> -31114.69563241 </i>
    <i name="eentropy">     -0.00000000 </i>
    <i name="bandstr">  -4394.50670228 </i>
    <i name="atom">  14067.85922051 </i>
    <i name="e_fr_energy">   -719.25134681 </i>
    <i name="e_wo_entrp">   -719.25134681 </i>
    <i name="e_0_energy">   -719.25134681 </i>
   </energy>
  </scstep>
  <structure>
   <crystal>
    <varray name="basis" >
     <v>      21.95362151       0.02333032       0.00000000 </v>
     <v>       0.02261993      21.88757065       0.00000000 </v>
     <v>       0.00000000       0.00000000      20.00000000 </v>
    </varray>
    <i name="volume">   9610.21828237 </i>
    <varray name="rec_basis" >
     <v>       0.04555062      -0.00004707       0.00000000 </v>
     <v>      -0.00004855       0.04568808       0.00000000 </v>
     <v>       0.00000000       0.00000000       0.05000000 </v>
    </varray>
   </crystal>
   <varray name="positions" >
    <v>       0.01153585       0.27682648       0.50873949 </v>
    <v>       0.02511706       0.56226125       0.35147446 </v>
    <v>       0.91604296       0.33175191       0.41743359 </v>
    <v>       0.00147578       0.71979905       0.52708098 </v>
    <v>       0.51911119       0.96792423       0.33606097 </v>
    <v>       0.34820113       0.10461028       0.38385828 </v>
    <v>       0.72172098       0.99688462       0.41585886 </v>
    <v>       0.27651497       0.00636720       0.43629246 </v>
    <v>       0.00257208       0.51405349       0.33040147 </v>
    <v>       0.89491017       0.35085596       0.36375224 </v>
    <v>       0.05583605       0.59829324       0.31746015 </v>
    <v>       0.89580888       0.28725403       0.44894671 </v>
    <v>       0.53298000       0.99036200       0.28126431 </v>
    <v>       0.38171681       0.13038707       0.34246571 </v>
    <v>       0.47636464       0.93215477       0.34598027 </v>
    <v>       0.29380409       0.11795095       0.39358121 </v>
    <v>       0.00083661       0.21313199       0.60946542 </v>
    <v>       0.99192240       0.11511643       0.67234092 </v>
    <v>       0.99036822       0.89044980       0.67923996 </v>
    <v>       0.99449275       0.78908868       0.62235819 </v>
    <v>       0.11288230       0.99856904       0.52273411 </v>
    <v>       0.88036076       0.99505110       0.51458764 </v>
    <v>       0.94575904       0.00263119       0.65333568 </v>
    <v>       0.02463981       0.00210754       0.66444293 </v>
    <v>       0.76709219       0.99013534       0.50895714 </v>
    <v>       0.22605385       0.00942371       0.52506179 </v>
    <v>       0.09669084       0.46340369       0.52129387 </v>
    <v>       0.09635204       0.35146629       0.53872430 </v>
    <v>       0.98903454       0.62976528       0.60448169 </v>
    <v>       0.99385007       0.51908875       0.57657123 </v>
    <v>       0.44944297       0.92720270       0.52927057 </v>
    <v>       0.33703996       0.93250214       0.51974714 </v>
    <v>       0.66668505       0.01654759       0.54151841 </v>
    <v>       0.55529466       0.01866615       0.55864863 </v>
    <v>       0.99981004       0.88001364       0.43185021 </v>
    <v>       0.00610060       0.11235736       0.42499844 </v>
    <v>       0.21340230       0.99547814       0.33809013 </v>
    <v>       0.11565904       0.99276380       0.27490537 </v>
    <v>       0.89251000       0.00151803       0.26711366 </v>
    <v>       0.79111763       0.00109272       0.32332581 </v>
    <v>       0.00226239       0.95776169       0.28686213 </v>
    <v>       0.00473224       0.03746841       0.28837078 </v>
    <v>       0.01236260       0.22409003       0.42146374 </v>
    <v>       0.99547024       0.76763991       0.43545882 </v>
    <v>       0.02090597       0.67286408       0.39692805 </v>
    <v>       0.93137533       0.44847795       0.40607394 </v>
    <v>       0.63815866       0.97623131       0.33264461 </v>
    <v>       0.46425215       0.08393884       0.39922506 </v>
    <v>       0.99800621       0.05714616       0.51421287 </v>
    <v>       0.99413588       0.05841526       0.58404696 </v>
    <v>       0.99307844       0.94243100       0.58757237 </v>
    <v>       0.99631471       0.93987743       0.51771823 </v>
    <v>       0.99267447       0.88772492       0.62473995 </v>
    <v>       0.99487699       0.83147067       0.59382206 </v>
    <v>       0.99714174       0.82805860       0.52334415 </v>
    <v>       0.00416662       0.16875990       0.51312605 </v>
    <v>       0.99994525       0.16936668       0.58350645 </v>
    <v>       0.99501150       0.11493886       0.61780906 </v>
    <v>       0.98916803       0.00148062       0.62529058 </v>
    <v>       0.01291898       0.33583975       0.48546623 </v>
    <v>       0.06041457       0.43581742       0.49949437 </v>
    <v>       0.06053356       0.37327111       0.50940950 </v>
    <v>       0.99608281       0.61472619       0.55308677 </v>
    <v>       0.99871591       0.55319936       0.53719305 </v>
    <v>       0.36528389       0.96698635       0.49560172 </v>
    <v>       0.94071139       0.99737560       0.42912124 </v>
    <v>       0.94363945       0.99838766       0.35920101 </v>
    <v>       0.05912292       0.99489423       0.36315964 </v>
    <v>       0.05782286       0.99575359       0.43311760 </v>
    <v>       0.11344243       0.99674170       0.46810616 </v>
    <v>       0.16930401       0.99695653       0.43455753 </v>
    <v>       0.16978413       0.99469036       0.36403035 </v>
    <v>       0.11547996       0.99352639       0.32952359 </v>
    <v>       0.88940721       0.00018985       0.32162709 </v>
    <v>       0.83318149       0.99996666       0.35215421 </v>
    <v>       0.82925070       0.99751113       0.42259332 </v>
    <v>       0.88310630       0.99660426       0.46002469 </v>
    <v>       0.99784126       0.88234027       0.48641645 </v>
    <v>       0.00289377       0.11281604       0.47953046 </v>
    <v>       0.99806534       0.99738852       0.47354065 </v>
    <v>       0.00253202       0.99710202       0.32148729 </v>
    <v>       0.99825912       0.76818185       0.49071467 </v>
    <v>       0.76890437       0.99491371       0.45387370 </v>
    <v>       0.00969534       0.22642294       0.47654781 </v>
    <v>       0.22730615       0.00358090       0.47016441 </v>
    <v>       0.96794021       0.36530645       0.44580186 </v>
    <v>       0.96823528       0.42846813       0.43514869 </v>
    <v>       0.01302136       0.46499653       0.46405514 </v>
    <v>       0.00742688       0.53244117       0.47118426 </v>
    <v>       0.01403866       0.57832301       0.42223196 </v>
    <v>       0.01288107       0.64057184       0.43741122 </v>
    <v>       0.00303805       0.65990570       0.50354246 </v>
    <v>       0.33615727       0.01122383       0.45510446 </v>
    <v>       0.37440887       0.05505277       0.42391161 </v>
    <v>       0.43748622       0.05078224       0.42724366 </v>
    <v>       0.46550715       0.00414682       0.46379361 </v>
    <v>       0.42843627       0.96374803       0.50011902 </v>
    <v>       0.53238579       0.99643272       0.45706094 </v>
    <v>       0.55803617       0.98369106       0.39404671 </v>
    <v>       0.62023210       0.98422712       0.38264279 </v>
    <v>       0.66097790       0.99536168       0.43542505 </v>
    <v>       0.63655671       0.00636403       0.49961055 </v>
    <v>       0.57360787       0.00720451       0.50947976 </v>
   </varray>
  </structure>
  <varray name="forces" >
   <v>       0.00076260       0.00195966       0.00115200 </v>
   <v>      -0.00113082      -0.00155208      -0.00340099 </v>
   <v>      -0.00197264       0.00149983       0.00301310 </v>
   <v>      -0.00075927       0.00166120      -0.00045605 </v>
   <v>      -0.00459023      -0.00387010       0.00402714 </v>
   <v>      -0.00271687      -0.00497318       0.00627153 </v>
   <v>       0.00306757       0.00100375       0.00031437 </v>
   <v>      -0.00416641      -0.00351678      -0.00237674 </v>
   <v>       0.00297555       0.00440168       0.00109072 </v>
   <v>      -0.00564876       0.00205558       0.00176458 </v>
   <v>      -0.00262407      -0.00066929       0.00048737 </v>
   <v>      -0.00026510      -0.00098647      -0.00004424 </v>
   <v>       0.00175622      -0.00080159      -0.00298059 </v>
   <v>       0.00780240       0.00468236       0.00150190 </v>
   <v>       0.00390449       0.00053671       0.00254688 </v>
   <v>       0.00097894       0.00289170      -0.00026975 </v>
   <v>      -0.00076283      -0.00077874      -0.00093685 </v>
   <v>      -0.00024731       0.00014401      -0.00105434 </v>
   <v>      -0.00134093       0.00070037      -0.00029913 </v>
   <v>      -0.00102936      -0.00080183       0.00071283 </v>
   <v>      -0.00102580       0.00103530      -0.00058174 </v>
   <v>       0.00017618       0.00141993      -0.00071174 </v>
   <v>      -0.00088500      -0.00035429      -0.00035966 </v>
   <v>      -0.00175015       0.00064216      -0.00028155 </v>
   <v>      -0.00028537       0.00037915       0.00069091 </v>
   <v>       0.00060389       0.00262927      -0.00088391 </v>
   <v>      -0.00088254      -0.00157610      -0.00194271 </v>
   <v>      -0.00003753       0.00086047      -0.00290888 </v>
   <v>       0.00007498      -0.00106811      -0.00072951 </v>
   <v>       0.00029474       0.00206410      -0.00083630 </v>
   <v>      -0.00009543       0.00241052      -0.00210204 </v>
   <v>      -0.00040802      -0.00013483       0.00081533 </v>
   <v>       0.00234039       0.00221982      -0.00034115 </v>
   <v>       0.00182022       0.00272547       0.00138477 </v>
   <v>       0.00091373       0.00118209       0.00054273 </v>
   <v>       0.00112333      -0.00082832       0.00086838 </v>
   <v>       0.00035913       0.00049110       0.00032632 </v>
   <v>      -0.00015210      -0.00190500      -0.00272422 </v>
   <v>       0.00023467      -0.00260115       0.00145113 </v>
   <v>      -0.00098515      -0.00292510      -0.00010947 </v>
   <v>      -0.00047002      -0.00246971       0.00053147 </v>
   <v>       0.00003631      -0.00294266      -0.00128375 </v>
   <v>       0.00092727      -0.00277631      -0.00251284 </v>
   <v>      -0.00106196       0.00250864      -0.00185945 </v>
   <v>       0.00069962      -0.00081566       0.00066342 </v>
   <v>      -0.00355722      -0.00034311      -0.00167825 </v>
   <v>      -0.00031049      -0.00029300       0.00026240 </v>
   <v>      -0.00014328      -0.00003191       0.00430057 </v>
   <v>       0.00009412      -0.00316326      -0.00074447 </v>
   <v>      -0.00187089      -0.00008355      -0.00126994 </v>
   <v>       0.00025641      -0.00181383      -0.00278484 </v>
   <v>      -0.00025892       0.00151555       0.00022698 </v>
   <v>      -0.00105346       0.00107080       0.00060450 </v>
   <v>      -0.00158965       0.00288011      -0.00062391 </v>
   <v>      -0.00030536       0.00092767      -0.00264763 </v>
   <v>      -0.00177837       0.00002457      -0.00144262 </v>
   <v>       0.00018648      -0.00227971      -0.00212870 </v>
   <v>      -0.00085598       0.00091133      -0.00151477 </v>
   <v>      -0.00283482       0.00176830       0.00561394 </v>
   <v>       0.00069348      -0.00263300      -0.00077143 </v>
   <v>      -0.00101327       0.00212900      -0.00247357 </v>
   <v>       0.00522159      -0.00474644      -0.00119517 </v>
   <v>      -0.00161945       0.00555072      -0.00215205 </v>
   <v>      -0.00137059      -0.00468829       0.00022371 </v>
   <v>      -0.00231539       0.00248734      -0.00364236 </v>
   <v>       0.00596349       0.00083878      -0.00216089 </v>
   <v>      -0.00270572       0.00044832       0.00478036 </v>
   <v>       0.00259603      -0.00186548       0.00807233 </v>
   <v>      -0.00041703      -0.00029016      -0.00334564 </v>
   <v>       0.00436745       0.00040303      -0.00037688 </v>
   <v>      -0.00436442      -0.00155414       0.00040821 </v>
   <v>       0.00432968       0.00038869       0.00050279 </v>
   <v>      -0.00332268      -0.00222352       0.00097859 </v>
   <v>       0.00415830      -0.00292043      -0.00293356 </v>
   <v>      -0.00248367      -0.00164816       0.00119034 </v>
   <v>       0.00179063       0.00000524       0.00224777 </v>
   <v>      -0.00541029      -0.00036013       0.00154112 </v>
   <v>       0.00088840      -0.00020698       0.00087022 </v>
   <v>       0.00180691       0.00041063      -0.00174905 </v>
   <v>      -0.00209318       0.00078228      -0.00031127 </v>
   <v>      -0.00155786      -0.00077800      -0.01301316 </v>
   <v>      -0.00126417       0.00082079       0.00188530 </v>
   <v>      -0.00130764       0.00069689      -0.00212513 </v>
   <v>      -0.00096187      -0.00136464      -0.00172821 </v>
   <v>       0.00182878       0.00284865      -0.00004881 </v>
   <v>      -0.00145324       0.00037181       0.00034502 </v>
   <v>      -0.00133581      -0.00199380       0.00087545 </v>
   <v>       0.00039600      -0.00082518       0.00066343 </v>
   <v>       0.00091418      -0.00080462      -0.00163074 </v>
   <v>       0.00245671       0.00246561      -0.00260575 </v>
   <v>       0.00093175       0.00004240       0.00091654 </v>
   <v>      -0.00107159      -0.00352304       0.00114893 </v>
   <v>       0.00573894       0.00180880       0.00161400 </v>
   <v>       0.00121919       0.00273942       0.00195702 </v>
   <v>       0.00196267       0.00500840       0.00336878 </v>
   <v>      -0.00163058       0.00157380       0.00213224 </v>
   <v>       0.00272508      -0.00475821       0.00260373 </v>
   <v>       0.00165856      -0.00060118       0.00019243 </v>
   <v>       0.00113258      -0.00250199       0.00345048 </v>
   <v>       0.00160498      -0.00045166       0.00183899 </v>
   <v>      -0.00181734      -0.00016107       0.00162988 </v>
   <v>       0.00261404       0.00103701      -0.00000179 </v>
   <v>       0.00097925       0.00319496       0.00248521 </v>
  </varray>
  <varray name="stress" >
   <v>       0.01754260      -0.01342579       0.00260262 </v>
   <v>      -0.01342579      -0.00608692       0.00255953 </v>
   <v>       0.00260262       0.00255953      -0.25582278 </v>
  </varray>
  <energy>
   <i name="e_fr_energy">   -721.58750906 </i>
   <i name="e_wo_entrp">   -721.58750906 </i>
   <i name="e_0_energy">     -0.00000000 </i>
  </energy>
  <time name="totalsc"> 1074.30 1085.51</time>
  <eigenvalues>
   <array>
    <dimension dim="1">band</dimension>
    <dimension dim="2">kpoint</dimension>
    <dimension dim="3">spin</dimension>
    <field>eigene</field>
    <field>occ</field>
    <set>
     <set comment="spin 1">
      <set comment="kpoint 1">
       <r>  -30.2882    1.0000 </r>
       <r>  -30.2829    1.0000 </r>
       <r>  -30.0872    1.0000 </r>
       <r>  -29.9300    1.0000 </r>
       <r>  -25.9078    1.0000 </r>
       <r>  -25.8948    1.0000 </r>
       <r>  -25.6794    1.0000 </r>
       <r>  -25.5269    1.0000 </r>
       <r>  -23.5588    1.0000 </r>
       <r>  -23.5039    1.0000 </r>
       <r>  -23.3103    1.0000 </r>
       <r>  -23.2588    1.0000 </r>
       <r>  -22.3171    1.0000 </r>
       <r>  -21.9256    1.0000 </r>
       <r>  -21.8927    1.0000 </r>
       <r>  -21.5637    1.0000 </r>
       <r>  -21.4881    1.0000 </r>
       <r>  -21.4680    1.0000 </r>
       <r>  -21.1472    1.0000 </r>
       <r>  -21.1065    1.0000 </r>
       <r>  -20.2744    1.0000 </r>
       <r>  -20.1125    1.0000 </r>
       <r>  -19.8868    1.0000 </r>
       <r>  -19.7122    1.0000 </r>
       <r>  -19.6271    1.0000 </r>
       <r>  -19.5691    1.0000 </r>
       <r>  -19.5186    1.0000 </r>
       <r>  -19.1042    1.0000 </r>
       <r>  -19.0822    1.0000 </r>
       <r>  -19.0074    1.0000 </r>
       <r>  -18.9731    1.0000 </r>
       <r>  -18.5452    1.0000 </r>
       <r>  -18.4888    1.0000 </r>
       <r>  -18.2855    1.0000 </r>
       <r>  -17.9366    1.0000 </r>
       <r>  -17.9340    1.0000 </r>
       <r>  -17.7021    1.0000 </r>
       <r>  -17.4970    1.0000 </r>
       <r>  -17.0601    1.0000 </r>
       <r>  -17.0266    1.0000 </r>
       <r>  -16.9622    1.0000 </r>
       <r>  -16.8768    1.0000 </r>
       <r>  -16.6022    1.0000 </r>
       <r>  -16.1270    1.0000 </r>
       <r>  -15.8872    1.0000 </r>
       <r>  -15.8514    1.0000 </r>
       <r>  -15.6913    1.0000 </r>
       <r>  -15.3794    1.0000 </r>
       <r>  -15.0875    1.0000 </r>
       <r>  -15.0795    1.0000 </r>
       <r>  -14.9036    1.0000 </r>
       <r>  -14.7887    1.0000 </r>
       <r>  -14.7512    1.0000 </r>
       <r>  -14.7035    1.0000 </r>
       <r>  -14.6542    1.0000 </r>
       <r>  -14.3812    1.0000 </r>
       <r>  -14.3495    1.0000 </r>
       <r>  -14.2249    1.0000 </r>
       <r>  -14.1796    1.0000 </r>
       <r>  -13.7268    1.0000 </r>
       <r>  -13.6806    1.0000 </r>
       <r>  -13.4523    1.0000 </r>
       <r>  -13.3442    1.0000 </r>
       <r>  -13.1459    1.0000 </r>
       <r>  -12.8587    1.0000 </r>
       <r>  -12.8427    1.0000 </r>
       <r>  -12.7791    1.0000 </r>
       <r>  -12.7491    1.0000 </r>
       <r>  -12.7343    1.0000 </r>
       <r>  -12.6640    1.0000 </r>
       <r>  -12.6405    1.0000 </r>
       <r>  -12.6176    1.0000 </r>
       <r>  -12.4664    1.0000 </r>
       <r>  -12.3960    1.0000 </r>
       <r>  -12.3556    1.0000 </r>
       <r>  -12.2129    1.0000 </r>
       <r>  -12.0884    1.0000 </r>
       <r>  -12.0564    1.0000 </r>
       <r>  -12.0298    1.0000 </r>
       <r>  -11.9837    1.0000 </r>
       <r>  -11.9437    1.0000 </r>
       <r>  -11.8746    1.0000 </r>
       <r>  -11.8360    1.0000 </r>
       <r>  -11.8033    1.0000 </r>
       <r>  -11.7668    1.0000 </r>
       <r>  -11.4051    1.0000 </r>
       <r>  -11.3585    1.0000 </r>
       <r>  -11.2535    1.0000 </r>
       <r>  -11.2316    1.0000 </r>
       <r>  -11.1386    1.0000 </r>
       <r>  -11.0968    1.0000 </r>
       <r>  -11.0873    1.0000 </r>
       <r>  -11.0641    1.0000 </r>
       <r>  -10.9361    1.0000 </r>
       <r>  -10.9140    1.0000 </r>
       <r>  -10.9017    1.0000 </r>
       <r>  -10.7628    1.0000 </r>
       <r>  -10.7066    1.0000 </r>
       <r>  -10.6046    1.0000 </r>
       <r>  -10.5587    1.0000 </r>
       <r>  -10.5118    1.0000 </r>
       <r>  -10.4353    1.0000 </r>
       <r>  -10.3690    1.0000 </r>
       <r>  -10.2378    1.0000 </r>
       <r>  -10.1693    1.0000 </r>
       <r>  -10.1657    1.0000 </r>
       <r>  -10.1305    1.0000 </r>
       <r>   -9.9897    1.0000 </r>
       <r>   -9.9187    1.0000 </r>
       <r>   -9.8501    1.0000 </r>
       <r>   -9.8324    1.0000 </r>
       <r>   -9.7328    1.0000 </r>
       <r>   -9.6144    1.0000 </r>
       <r>   -9.5164    1.0000 </r>
       <r>   -9.4754    1.0000 </r>
       <r>   -9.4181    1.0000 </r>
       <r>   -9.3183    1.0000 </r>
       <r>   -9.2460    1.0000 </r>
       <r>   -9.1260    1.0000 </r>
       <r>   -9.1148    1.0000 </r>
       <r>   -9.0535    1.0000 </r>
       <r>   -9.0103    1.0000 </r>
       <r>   -8.9455    1.0000 </r>
       <r>   -8.9057    1.0000 </r>
       <r>   -8.8041    1.0000 </r>
       <r>   -8.7700    1.0000 </r>
       <r>   -8.5629    1.0000 </r>
       <r>   -8.5378    1.0000 </r>
       <r>   -8.4087    1.0000 </r>
       <r>   -8.3475    1.0000 </r>
       <r>   -8.3261    1.0000 </r>
       <r>   -8.2771    1.0000 </r>
       <r>   -8.2281    1.0000 </r>
       <r>   -8.0720    1.0000 </r>
       <r>   -8.0316    1.0000 </r>
       <r>   -7.8495    1.0000 </r>
       <r>   -7.7484    1.0000 </r>
       <r>   -7.5538    1.0000 </r>
       <r>   -7.2745    1.0000 </r>
       <r>   -7.2574    1.0000 </r>
       <r>   -7.0884    1.0000 </r>
       <r>   -7.0557    1.0000 </r>
       <r>   -6.9641    1.0000 </r>
       <r>   -6.9161    1.0000 </r>
       <r>   -6.8884    1.0000 </r>
       <r>   -6.8360    1.0000 </r>
       <r>   -6.8332    1.0000 </r>
       <r>   -6.7909    1.0000 </r>
       <r>   -6.6974    1.0000 </r>
       <r>   -6.6843    1.0000 </r>
       <r>   -6.6332    1.0000 </r>
       <r>   -6.6138    1.0000 </r>
       <r>   -6.5587    1.0000 </r>
       <r>   -6.5061    1.0000 </r>
       <r>   -6.4972    1.0000 </r>
       <r>   -6.1580    1.0000 </r>
       <r>   -6.1253    1.0000 </r>
       <r>   -6.0972    1.0000 </r>
       <r>   -6.0339    1.0000 </r>
       <r>   -6.0005    1.0000 </r>
       <r>   -5.9791    1.0000 </r>
       <r>   -5.8336    1.0000 </r>
       <r>   -5.8157    1.0000 </r>
       <r>   -5.7711    1.0000 </r>
       <r>   -5.7152    1.0000 </r>
       <r>   -5.6196    1.0000 </r>
       <r>   -5.5459    1.0000 </r>
       <r>   -5.4641    1.0000 </r>
       <r>   -5.1833    1.0000 </r>
       <r>   -5.1791    1.0000 </r>
       <r>   -2.9993    0.0000 </r>
       <r>   -2.9351    0.0000 </r>
       <r>   -2.8238    0.0000 </r>
       <r>   -2.8045    0.0000 </r>
       <r>   -2.7483    0.0000 </r>
       <r>   -2.5951    0.0000 </r>
       <r>   -2.4396    0.0000 </r>
       <r>   -2.3023    0.0000 </r>
       <r>   -1.5172    0.0000 </r>
       <r>   -1.4363    0.0000 </r>
       <r>   -1.3148    0.0000 </r>
       <r>   -1.2494    0.0000 </r>
       <r>   -1.2304    0.0000 </r>
       <r>   -1.1457    0.0000 </r>
       <r>   -1.1085    0.0000 </r>
       <r>   -0.9982    0.0000 </r>
       <r>   -0.8966    0.0000 </r>
       <r>   -0.7753    0.0000 </r>
       <r>   -0.6250    0.0000 </r>
       <r>   -0.5190    0.0000 </r>
       <r>   -0.4360    0.0000 </r>
       <r>   -0.2908    0.0000 </r>
       <r>   -0.1770    0.0000 </r>
       <r>   -0.1006    0.0000 </r>
       <r>   -0.0175    0.0000 </r>
       <r>    0.0022    0.0000 </r>
       <r>    0.0786    0.0000 </r>
       <r>    0.1406    0.0000 </r>
       <r>    0.1982    0.0000 </r>
       <r>    0.2224    0.0000 </r>
       <r>    0.3146    0.0000 </r>
       <r>    0.3769    0.0000 </r>
       <r>    0.4415    0.0000 </r>
       <r>    0.4722    0.0000 </r>
       <r>    0.5047    0.0000 </r>
       <r>    0.5604    0.0000 </r>
       <r>    0.5968    0.0000 </r>
       <r>    0.6242    0.0000 </r>
       <r>    0.6430    0.0000 </r>
       <r>    0.7236    0.0000 </r>
       <r>    0.7944    0.0000 </r>
       <r>    0.8122    0.0000 </r>
       <r>    0.8463    0.0000 </r>
       <r>    0.8916    0.0000 </r>
       <r>    0.9364    0.0000 </r>
       <r>    0.9538    0.0000 </r>
       <r>    0.9714    0.0000 </r>
       <r>    1.0570    0.0000 </r>
       <r>    1.0783    0.0000 </r>
       <r>    1.1203    0.0000 </r>
       <r>    1.1457    0.0000 </r>
       <r>    1.1725    0.0000 </r>
       <r>    1.1795    0.0000 </r>
       <r>    1.2035    0.0000 </r>
      </set>
      <set comment="kpoint 2">
       <r>  -30.2882    1.0000 </r>
       <r>  -30.2829    1.0000 </r>
       <r>  -30.0872    1.0000 </r>
       <r>  -29.9300    1.0000 </r>
       <r>  -25.9078    1.0000 </r>
       <r>  -25.8948    1.0000 </r>
       <r>  -25.6794    1.0000 </r>
       <r>  -25.5269    1.0000 </r>
       <r>  -23.5588    1.0000 </r>
       <r>  -23.5039    1.0000 </r>
       <r>  -23.3103    1.0000 </r>
       <r>  -23.2588    1.0000 </r>
       <r>  -22.3171    1.0000 </r>
       <r>  -21.9256    1.0000 </r>
       <r>  -21.8928    1.0000 </r>
       <r>  -21.5641    1.0000 </r>
       <r>  -21.4881    1.0000 </r>
       <r>  -21.4671    1.0000 </r>
       <r>  -21.1472    1.0000 </r>
       <r>  -21.1071    1.0000 </r>
       <r>  -20.2741    1.0000 </r>
       <r>  -20.1121    1.0000 </r>
       <r>  -19.8867    1.0000 </r>
       <r>  -19.7122    1.0000 </r>
       <r>  -19.6278    1.0000 </r>
       <r>  -19.5691    1.0000 </r>
       <r>  -19.5188    1.0000 </r>
       <r>  -19.1044    1.0000 </r>
       <r>  -19.0881    1.0000 </r>
       <r>  -19.0002    1.0000 </r>
       <r>  -18.9731    1.0000 </r>
       <r>  -18.5452    1.0000 </r>
       <r>  -18.4888    1.0000 </r>
       <r>  -18.2855    1.0000 </r>
       <r>  -17.9374    1.0000 </r>
       <r>  -17.9363    1.0000 </r>
       <r>  -17.7009    1.0000 </r>
       <r>  -17.4957    1.0000 </r>
       <r>  -17.0601    1.0000 </r>
       <r>  -17.0266    1.0000 </r>
       <r>  -16.9622    1.0000 </r>
       <r>  -16.8769    1.0000 </r>
       <r>  -16.6018    1.0000 </r>
       <r>  -16.1280    1.0000 </r>
       <r>  -15.8899    1.0000 </r>
       <r>  -15.8493    1.0000 </r>
       <r>  -15.6898    1.0000 </r>
       <r>  -15.3792    1.0000 </r>
       <r>  -15.0880    1.0000 </r>
       <r>  -15.0796    1.0000 </r>
       <r>  -14.9041    1.0000 </r>
       <r>  -14.7887    1.0000 </r>
       <r>  -14.7512    1.0000 </r>
       <r>  -14.7035    1.0000 </r>
       <r>  -14.6540    1.0000 </r>
       <r>  -14.3815    1.0000 </r>
       <r>  -14.3500    1.0000 </r>
       <r>  -14.2248    1.0000 </r>
       <r>  -14.1780    1.0000 </r>
       <r>  -13.7268    1.0000 </r>
       <r>  -13.6810    1.0000 </r>
       <r>  -13.4523    1.0000 </r>
       <r>  -13.3441    1.0000 </r>
       <r>  -13.1458    1.0000 </r>
       <r>  -12.8602    1.0000 </r>
       <r>  -12.8430    1.0000 </r>
       <r>  -12.7799    1.0000 </r>
       <r>  -12.7494    1.0000 </r>
       <r>  -12.7354    1.0000 </r>
       <r>  -12.6614    1.0000 </r>
       <r>  -12.6393    1.0000 </r>
       <r>  -12.6175    1.0000 </r>
       <r>  -12.4664    1.0000 </r>
       <r>  -12.3961    1.0000 </r>
       <r>  -12.3557    1.0000 </r>
       <r>  -12.2129    1.0000 </r>
       <r>  -12.0883    1.0000 </r>
       <r>  -12.0565    1.0000 </r>
       <r>  -12.0299    1.0000 </r>
       <r>  -11.9837    1.0000 </r>
       <r>  -11.9436    1.0000 </r>
       <r>  -11.8746    1.0000 </r>
       <r>  -11.8359    1.0000 </r>
       <r>  -11.8030    1.0000 </r>
       <r>  -11.7666    1.0000 </r>
       <r>  -11.4051    1.0000 </r>
       <r>  -11.3589    1.0000 </r>
       <r>  -11.2533    1.0000 </r>
       <r>  -11.2316    1.0000 </r>
       <r>  -11.1386    1.0000 </r>
       <r>  -11.0969    1.0000 </r>
       <r>  -11.0874    1.0000 </r>
       <r>  -11.0645    1.0000 </r>
       <r>  -10.9361    1.0000 </r>
       <r>  -10.9140    1.0000 </r>
       <r>  -10.9017    1.0000 </r>
       <r>  -10.7628    1.0000 </r>
       <r>  -10.7065    1.0000 </r>
       <r>  -10.6046    1.0000 </r>
       <r>  -10.5587    1.0000 </r>
       <r>  -10.5118    1.0000 </r>
       <r>  -10.4353    1.0000 </r>
       <r>  -10.3690    1.0000 </r>
       <r>  -10.2378    1.0000 </r>
       <r>  -10.1694    1.0000 </r>
       <r>  -10.1657    1.0000 </r>
       <r>  -10.1300    1.0000 </r>
       <r>   -9.9896    1.0000 </r>
       <r>   -9.9186    1.0000 </r>
       <r>   -9.8501    1.0000 </r>
       <r>   -9.8324    1.0000 </r>
       <r>   -9.7328    1.0000 </r>
       <r>   -9.6145    1.0000 </r>
       <r>   -9.5168    1.0000 </r>
       <r>   -9.4766    1.0000 </r>
       <r>   -9.4172    1.0000 </r>
       <r>   -9.3183    1.0000 </r>
       <r>   -9.2460    1.0000 </r>
       <r>   -9.1256    1.0000 </r>
       <r>   -9.1148    1.0000 </r>
       <r>   -9.0534    1.0000 </r>
       <r>   -9.0099    1.0000 </r>
       <r>   -8.9456    1.0000 </r>
       <r>   -8.9057    1.0000 </r>
       <r>   -8.8044    1.0000 </r>
       <r>   -8.7700    1.0000 </r>
       <r>   -8.5634    1.0000 </r>
       <r>   -8.5378    1.0000 </r>
       <r>   -8.4087    1.0000 </r>
       <r>   -8.3477    1.0000 </r>
       <r>   -8.3259    1.0000 </r>
       <r>   -8.2771    1.0000 </r>
       <r>   -8.2281    1.0000 </r>
       <r>   -8.0719    1.0000 </r>
       <r>   -8.0315    1.0000 </r>
       <r>   -7.8492    1.0000 </r>
       <r>   -7.7483    1.0000 </r>
       <r>   -7.5538    1.0000 </r>
       <r>   -7.2745    1.0000 </r>
       <r>   -7.2577    1.0000 </r>
       <r>   -7.0884    1.0000 </r>
       <r>   -7.0560    1.0000 </r>
       <r>   -6.9641    1.0000 </r>
       <r>   -6.9163    1.0000 </r>
       <r>   -6.8884    1.0000 </r>
       <r>   -6.8375    1.0000 </r>
       <r>   -6.8319    1.0000 </r>
       <r>   -6.7909    1.0000 </r>
       <r>   -6.6973    1.0000 </r>
       <r>   -6.6843    1.0000 </r>
       <r>   -6.6332    1.0000 </r>
       <r>   -6.6139    1.0000 </r>
       <r>   -6.5585    1.0000 </r>
       <r>   -6.5056    1.0000 </r>
       <r>   -6.4971    1.0000 </r>
       <r>   -6.1580    1.0000 </r>
       <r>   -6.1253    1.0000 </r>
       <r>   -6.0972    1.0000 </r>
       <r>   -6.0339    1.0000 </r>
       <r>   -6.0005    1.0000 </r>
       <r>   -5.9791    1.0000 </r>
       <r>   -5.8336    1.0000 </r>
       <r>   -5.8157    1.0000 </r>
       <r>   -5.7713    1.0000 </r>
       <r>   -5.7152    1.0000 </r>
       <r>   -5.6199    1.0000 </r>
       <r>   -5.5459    1.0000 </r>
       <r>   -5.4640    1.0000 </r>
       <r>   -5.1832    1.0000 </r>
       <r>   -5.1791    1.0000 </r>
       <r>   -2.9993    0.0000 </r>
       <r>   -2.9351    0.0000 </r>
       <r>   -2.8237    0.0000 </r>
       <r>   -2.8045    0.0000 </r>
       <r>   -2.7483    0.0000 </r>
       <r>   -2.5952    0.0000 </r>
       <r>   -2.4393    0.0000 </r>
       <r>   -2.3024    0.0000 </r>
       <r>   -1.5172    0.0000 </r>
       <r>   -1.4362    0.0000 </r>
       <r>   -1.3155    0.0000 </r>
       <r>   -1.2493    0.0000 </r>
       <r>   -1.2304    0.0000 </r>
       <r>   -1.1452    0.0000 </r>
       <r>   -1.1083    0.0000 </r>
       <r>   -0.9982    0.0000 </r>
       <r>   -0.8966    0.0000 </r>
       <r>   -0.7754    0.0000 </r>
       <r>   -0.6250    0.0000 </r>
       <r>   -0.5193    0.0000 </r>
       <r>   -0.4360    0.0000 </r>
       <r>   -0.2908    0.0000 </r>
       <r>   -0.1771    0.0000 </r>
       <r>   -0.1009    0.0000 </r>
       <r>   -0.0175    0.0000 </r>
       <r>    0.0024    0.0000 </r>
       <r>    0.0791    0.0000 </r>
       <r>    0.1406    0.0000 </r>
       <r>    0.1984    0.0000 </r>
       <r>    0.2225    0.0000 </r>
       <r>    0.3145    0.0000 </r>
       <r>    0.3767    0.0000 </r>
       <r>    0.4410    0.0000 </r>
       <r>    0.4730    0.0000 </r>
       <r>    0.5047    0.0000 </r>
       <r>    0.5602    0.0000 </r>
       <r>    0.5966    0.0000 </r>
       <r>    0.6240    0.0000 </r>
       <r>    0.6438    0.0000 </r>
       <r>    0.7233    0.0000 </r>
       <r>    0.7928    0.0000 </r>
       <r>    0.8129    0.0000 </r>
       <r>    0.8474    0.0000 </r>
       <r>    0.8911    0.0000 </r>
       <r>    0.9351    0.0000 </r>
       <r>    0.9511    0.0000 </r>
       <r>    0.9747    0.0000 </r>
       <r>    1.0569    0.0000 </r>
       <r>    1.0785    0.0000 </r>
       <r>    1.1208    0.0000 </r>
       <r>    1.1464    0.0000 </r>
       <r>    1.1713    0.0000 </r>
       <r>    1.1792    0.0000 </r>
       <r>    1.2026    0.0000 </r>
      </set>
      <set comment="kpoint 3">
       <r>  -30.2882    1.0000 </r>
       <r>  -30.2829    1.0000 </r>
       <r>  -30.0872    1.0000 </r>
       <r>  -29.9300    1.0000 </r>
       <r>  -25.9078    1.0000 </r>
       <r>  -25.8948    1.0000 </r>
       <r>  -25.6794    1.0000 </r>
       <r>  -25.5269    1.0000 </r>
       <r>  -23.5588    1.0000 </r>
       <r>  -23.5039    1.0000 </r>
       <r>  -23.3103    1.0000 </r>
       <r>  -23.2588    1.0000 </r>
       <r>  -22.3170    1.0000 </r>
       <r>  -21.9256    1.0000 </r>
       <r>  -21.8930    1.0000 </r>
       <r>  -21.5655    1.0000 </r>
       <r>  -21.4881    1.0000 </r>
       <r>  -21.4645    1.0000 </r>
       <r>  -21.1472    1.0000 </r>
       <r>  -21.1087    1.0000 </r>
       <r>  -20.2733    1.0000 </r>
       <r>  -20.1110    1.0000 </r>
       <r>  -19.8865    1.0000 </r>
       <r>  -19.7122    1.0000 </r>
       <r>  -19.6298    1.0000 </r>
       <r>  -19.5691    1.0000 </r>
       <r>  -19.5192    1.0000 </r>
       <r>  -19.1071    1.0000 </r>
       <r>  -19.0993    1.0000 </r>
       <r>  -18.9829    1.0000 </r>
       <r>  -18.9731    1.0000 </r>
       <r>  -18.5452    1.0000 </r>
       <r>  -18.4887    1.0000 </r>
       <r>  -18.2855    1.0000 </r>
       <r>  -17.9462    1.0000 </r>
       <r>  -17.9365    1.0000 </r>
       <r>  -17.6977    1.0000 </r>
       <r>  -17.4917    1.0000 </r>
       <r>  -17.0602    1.0000 </r>
       <r>  -17.0268    1.0000 </r>
       <r>  -16.9621    1.0000 </r>
       <r>  -16.8770    1.0000 </r>
       <r>  -16.6008    1.0000 </r>
       <r>  -16.1308    1.0000 </r>
       <r>  -15.8967    1.0000 </r>
       <r>  -15.8448    1.0000 </r>
       <r>  -15.6854    1.0000 </r>
       <r>  -15.3787    1.0000 </r>
       <r>  -15.0894    1.0000 </r>
       <r>  -15.0796    1.0000 </r>
       <r>  -14.9056    1.0000 </r>
       <r>  -14.7887    1.0000 </r>
       <r>  -14.7512    1.0000 </r>
       <r>  -14.7034    1.0000 </r>
       <r>  -14.6535    1.0000 </r>
       <r>  -14.3824    1.0000 </r>
       <r>  -14.3515    1.0000 </r>
       <r>  -14.2244    1.0000 </r>
       <r>  -14.1733    1.0000 </r>
       <r>  -13.7268    1.0000 </r>
       <r>  -13.6820    1.0000 </r>
       <r>  -13.4524    1.0000 </r>
       <r>  -13.3439    1.0000 </r>
       <r>  -13.1457    1.0000 </r>
       <r>  -12.8651    1.0000 </r>
       <r>  -12.8436    1.0000 </r>
       <r>  -12.7823    1.0000 </r>
       <r>  -12.7503    1.0000 </r>
       <r>  -12.7377    1.0000 </r>
       <r>  -12.6554    1.0000 </r>
       <r>  -12.6350    1.0000 </r>
       <r>  -12.6173    1.0000 </r>
       <r>  -12.4663    1.0000 </r>
       <r>  -12.3965    1.0000 </r>
       <r>  -12.3559    1.0000 </r>
       <r>  -12.2130    1.0000 </r>
       <r>  -12.0882    1.0000 </r>
       <r>  -12.0569    1.0000 </r>
       <r>  -12.0300    1.0000 </r>
       <r>  -11.9837    1.0000 </r>
[...]
       <r>   -27.2389     0.0000     8.0000 </r>
       <r>   -27.1233     0.0000     8.0000 </r>
       <r>   -27.0076     0.0000     8.0000 </r>
       <r>   -26.8920     0.0000     8.0000 </r>
       <r>   -26.7763     0.0000     8.0000 </r>
       <r>   -26.6606     0.0000     8.0000 </r>
       <r>   -26.5450     0.0000     8.0000 </r>
       <r>   -26.4293     0.0000     8.0000 </r>
       <r>   -26.3136     0.0000     8.0000 </r>
       <r>   -26.1980     0.0000     8.0000 </r>
       <r>   -26.0823     0.0000     8.0000 </r>
       <r>   -25.9667     0.0000     8.0000 </r>
       <r>   -25.8510    34.5833    12.0000 </r>
       <r>   -25.7353     0.0000    12.0000 </r>
       <r>   -25.6197    17.2917    14.0000 </r>
       <r>   -25.5040    17.2811    15.9988 </r>
       <r>   -25.3883     0.0000    16.0000 </r>
       <r>   -25.2727     0.0000    16.0000 </r>
       <r>   -25.1570     0.0000    16.0000 </r>
       <r>   -25.0414     0.0000    16.0000 </r>
       <r>   -24.9257     0.0000    16.0000 </r>
       <r>   -24.8100     0.0000    16.0000 </r>
       <r>   -24.6944     0.0000    16.0000 </r>
       <r>   -24.5787     0.0000    16.0000 </r>
       <r>   -24.4630     0.0000    16.0000 </r>
       <r>   -24.3474     0.0000    16.0000 </r>
       <r>   -24.2317     0.0000    16.0000 </r>
       <r>   -24.1161     0.0000    16.0000 </r>
       <r>   -24.0004     0.0000    16.0000 </r>
       <r>   -23.8847     0.0000    16.0000 </r>
       <r>   -23.7691     0.0000    16.0000 </r>
       <r>   -23.6534     0.0000    16.0000 </r>
       <r>   -23.5377    17.2668    17.9971 </r>
       <r>   -23.4221     0.0000    20.0000 </r>
       <r>   -23.3064    12.2648    21.4186 </r>
       <r>   -23.1908    17.2917    24.0000 </r>
       <r>   -23.0751     0.0000    24.0000 </r>
       <r>   -22.9594     0.0000    24.0000 </r>
       <r>   -22.8438     0.0000    24.0000 </r>
       <r>   -22.7281     0.0000    24.0000 </r>
       <r>   -22.6124     0.0000    24.0000 </r>
       <r>   -22.4968     0.0000    24.0000 </r>
       <r>   -22.3811     0.0000    24.0000 </r>
       <r>   -22.2655    17.2917    26.0000 </r>
       <r>   -22.1498     0.0000    26.0000 </r>
       <r>   -22.0341     0.0000    26.0000 </r>
       <r>   -21.9185    14.6083    27.6896 </r>
       <r>   -21.8028     0.0000    30.0000 </r>
       <r>   -21.6871     0.0000    30.0000 </r>
       <r>   -21.5715    14.9954    31.7344 </r>
       <r>   -21.4558    12.5817    33.4552 </r>
       <r>   -21.3402    10.9785    35.3031 </r>
       <r>   -21.2245     5.1679    36.5977 </r>
       <r>   -21.1088    18.2513    39.8443 </r>
       <r>   -20.9932     0.0000    40.0000 </r>
       <r>   -20.8775     0.0000    40.0000 </r>
       <r>   -20.7618     0.0000    40.0000 </r>
       <r>   -20.6462     0.0000    40.0000 </r>
       <r>   -20.5305     0.0000    40.0000 </r>
       <r>   -20.4148     0.0000    40.0000 </r>
       <r>   -20.2992     0.0003    40.0000 </r>
       <r>   -20.1835    11.7980    41.7646 </r>
       <r>   -20.0679     5.9289    42.6858 </r>
       <r>   -19.9522     8.6458    44.0000 </r>
       <r>   -19.8365    13.7732    45.5930 </r>
       <r>   -19.7209    18.9887    48.1963 </r>
       <r>   -19.6052     7.6825    50.2219 </r>
       <r>   -19.4895    24.2083    54.0000 </r>
       <r>   -19.3739     0.0000    54.0000 </r>
       <r>   -19.2582     4.9853    54.5766 </r>
       <r>   -19.1426     6.8255    56.7228 </r>
       <r>   -19.0269     7.7830    58.0002 </r>
       <r>   -18.9112    10.5058    59.3485 </r>
       <r>   -18.7956     3.4482    59.9322 </r>
       <r>   -18.6799     3.6942    60.5606 </r>
       <r>   -18.5642     9.8203    62.0025 </r>
       <r>   -18.4486    13.7804    64.9605 </r>
       <r>   -18.3329     8.6454    67.0000 </r>
       <r>   -18.2173    20.2004    69.5364 </r>
       <r>   -18.1016     3.1397    70.0631 </r>
       <r>   -17.9859     3.5489    70.6771 </r>
       <r>   -17.8703     9.2222    72.0000 </r>
       <r>   -17.7546     0.0000    72.0000 </r>
       <r>   -17.6389     8.8786    73.0269 </r>
       <r>   -17.5233     6.3400    74.0000 </r>
       <r>   -17.4076     3.4086    74.5943 </r>
       <r>   -17.2920     7.6139    75.6473 </r>
       <r>   -17.1763     0.0000    76.0000 </r>
       <r>   -17.0606     7.6200    76.8813 </r>
       <r>   -16.9450    24.4854    81.9654 </r>
       <r>   -16.8293    16.1932    83.8729 </r>
       <r>   -16.7136     0.0000    84.0000 </r>
       <r>   -16.5980     1.8430    84.2132 </r>
       <r>   -16.4823    10.7156    85.9394 </r>
       <r>   -16.3667     0.1646    86.0190 </r>
       <r>   -16.2510     7.2939    87.2436 </r>
       <r>   -16.1353     8.2730    88.3235 </r>
       <r>   -16.0197     2.2100    88.8889 </r>
       <r>   -15.9040     6.8995    89.7980 </r>
       <r>   -15.7883     8.9895    91.0397 </r>
       <r>   -15.6727     8.1854    92.1801 </r>
       <r>   -15.5570     2.8529    92.7300 </r>
       <r>   -15.4414     4.0257    93.5323 </r>
       <r>   -15.3257    11.2138    94.9970 </r>
       <r>   -15.2100     8.0267    96.9284 </r>
       <r>   -15.0944    11.1033    98.7176 </r>
       <r>   -14.9787     0.0103   100.0012 </r>
       <r>   -14.8630     7.1913   102.0318 </r>
       <r>   -14.7474    20.9488   105.0897 </r>
       <r>   -14.6317    26.8229   109.1024 </r>
       <r>   -14.5161     0.0000   110.0000 </r>
       <r>   -14.4004    19.5141   112.2571 </r>
       <r>   -14.2847     5.4757   114.0000 </r>
       <r>   -14.1691    10.8478   115.2547 </r>
       <r>   -14.0534     5.1387   116.1944 </r>
       <r>   -13.9377    10.2631   117.6204 </r>
       <r>   -13.8221     1.3865   118.1604 </r>
       <r>   -13.7064    25.6802   121.4036 </r>
       <r>   -13.5907     0.0000   122.0000 </r>
       <r>   -13.4751     0.0086   122.0010 </r>
       <r>   -13.3594     1.2001   124.0055 </r>
       <r>   -13.2438     6.0521   126.0000 </r>
       <r>   -13.1281    15.7676   127.8237 </r>
       <r>   -13.0124     6.0606   129.2677 </r>
       <r>   -12.8968     5.9776   130.5581 </r>
       <r>   -12.7811    33.7621   134.8717 </r>
       <r>   -12.6654    17.7485   138.0528 </r>
       <r>   -12.5498    30.1971   142.2260 </r>
       <r>   -12.4341    20.4919   145.1368 </r>
       <r>   -12.3185    26.2025   149.9973 </r>
       <r>   -12.2028    16.6459   151.9253 </r>
       <r>   -12.0871     4.9792   152.5759 </r>
       <r>   -11.9715    30.8280   159.5656 </r>
       <r>   -11.8558    29.3545   163.9952 </r>
       <r>   -11.7401    27.9360   168.6645 </r>
       <r>   -11.6245     8.0694   170.0000 </r>
       <r>   -11.5088     0.0000   170.0000 </r>
       <r>   -11.3932    23.5453   172.7233 </r>
       <r>   -11.2775     6.5378   174.7562 </r>
       <r>   -11.1618    16.9600   178.8283 </r>
       <r>   -11.0462    41.7794   185.9990 </r>
       <r>   -10.9305    14.6139   187.6903 </r>
       <r>   -10.8148     0.0000   192.0000 </r>
       <r>   -10.6992    26.4717   195.0618 </r>
       <r>   -10.5835    17.2820   197.9989 </r>
       <r>   -10.4679    17.2917   202.0000 </r>
       <r>   -10.3522    17.2020   205.9896 </r>
       <r>   -10.2365     6.3033   206.7291 </r>
       <r>   -10.1209    37.3003   212.3143 </r>
       <r>   -10.0052     7.5692   214.0088 </r>
       <r>    -9.8895    14.7131   217.1018 </r>
       <r>    -9.7739    34.5830   222.0000 </r>
       <r>    -9.6582    14.2567   224.0823 </r>
       <r>    -9.5426    20.2049   228.2370 </r>
       <r>    -9.4269     5.0776   230.0206 </r>
       <r>    -9.3112    11.6784   232.8174 </r>
       <r>    -9.1956    17.2915   236.0000 </r>
       <r>    -9.0799    21.8709   238.5296 </r>
       <r>    -8.9642    31.9492   243.5953 </r>
       <r>    -8.8486    26.0268   249.0103 </r>
       <r>    -8.7329    20.7500   252.0000 </r>
       <r>    -8.6173    10.4902   253.2133 </r>
       <r>    -8.5016    16.1389   256.0000 </r>
       <r>    -8.3859    15.9446   257.8442 </r>
       <r>    -8.2703    30.2604   263.1667 </r>
       <r>    -8.1546    12.1042   266.0000 </r>
       <r>    -8.0389    17.8007   268.0589 </r>
       <r>    -7.9233     0.0000   270.0000 </r>
       <r>    -7.8076     8.5204   270.9855 </r>
       <r>    -7.6920    16.6299   273.9235 </r>
       <r>    -7.5763     0.0125   274.0014 </r>
       <r>    -7.4606     0.0000   276.0000 </r>
       <r>    -7.3450     0.0000   276.0000 </r>
       <r>    -7.2293    31.9895   280.0000 </r>
       <r>    -7.1136     0.2348   280.0272 </r>
       <r>    -6.9980     6.3412   284.0001 </r>
       <r>    -6.8823    32.8432   289.7987 </r>
       <r>    -6.7667    37.4632   295.9998 </r>
       <r>    -6.6510    34.6157   300.0037 </r>
       <r>    -6.5353    27.2086   305.9137 </r>
       <r>    -6.4197    27.1785   309.9435 </r>
       <r>    -6.3040     0.0000   310.0000 </r>
       <r>    -6.1883     0.0001   310.0000 </r>
       <r>    -6.0727    34.5793   315.9995 </r>
       <r>    -5.9570    46.7849   321.4113 </r>
       <r>    -5.8413    10.8233   323.2518 </r>
       <r>    -5.7257    18.5608   328.1468 </r>
       <r>    -5.6100    17.1169   331.9798 </r>
       <r>    -5.4944    13.2570   334.0000 </r>
       <r>    -5.3787    13.2569   336.0000 </r>
       <r>    -5.2630     0.0000   336.0000 </r>
       <r>    -5.1474    34.3422   339.9721 </r>
       <r>    -5.0317     0.0000   340.0000 </r>
       <r>    -4.9160     0.0000   340.0000 </r>
       <r>    -4.8004     0.0000   340.0000 </r>
       <r>    -4.6847     0.0000   340.0000 </r>
       <r>    -4.5691     0.0000   340.0000 </r>
       <r>    -4.4534     0.0000   340.0000 </r>
       <r>    -4.3377     0.0000   340.0000 </r>
       <r>    -4.2221     0.0000   340.0000 </r>
       <r>    -4.1064     0.0000   340.0000 </r>
       <r>    -3.9907     0.0000   340.0000 </r>
       <r>    -3.8751     0.0000   340.0000 </r>
       <r>    -3.7594     0.0000   340.0000 </r>
       <r>    -3.6438     0.0000   340.0000 </r>
       <r>    -3.5281     0.0000   340.0000 </r>
       <r>    -3.4124     0.0000   340.0000 </r>
       <r>    -3.2968     0.0000   340.0000 </r>
       <r>    -3.1811     0.0000   340.0000 </r>
       <r>    -3.0654     0.0000   340.0000 </r>
       <r>    -2.9498    18.9327   342.1898 </r>
       <r>    -2.8341     0.6379   344.0738 </r>
       <r>    -2.7185    17.2916   350.0000 </r>
       <r>    -2.6028     8.5492   350.9888 </r>
       <r>    -2.4871     0.0000   352.0000 </r>
       <r>    -2.3715    17.2856   353.9993 </r>
       <r>    -2.2558    17.2917   356.0000 </r>
       <r>    -2.1401     0.0000   356.0000 </r>
       <r>    -2.0245     0.0000   356.0000 </r>
       <r>    -1.9088     0.0000   356.0000 </r>
       <r>    -1.7932     0.0000   356.0000 </r>
       <r>    -1.6775     0.0000   356.0000 </r>
       <r>    -1.5618     0.0000   356.0000 </r>
       <r>    -1.4462    18.6359   358.1555 </r>
       <r>    -1.3305     9.6979   361.6550 </r>
       <r>    -1.2148    25.9445   365.0008 </r>
       <r>    -1.0992    20.6869   368.3927 </r>
       <r>    -0.9835    20.4039   371.3933 </r>
       <r>    -0.8679    17.2905   373.9999 </r>
       <r>    -0.7522    17.2885   375.9996 </r>
       <r>    -0.6365     0.1584   376.0183 </r>
       <r>    -0.5209    22.9418   379.8202 </r>
       <r>    -0.4052    17.2022   381.9897 </r>
       <r>    -0.2895     7.3060   382.8450 </r>
       <r>    -0.1739    16.2390   385.8783 </r>
       <r>    -0.0582    11.2822   388.0383 </r>
       <r>     0.0574    26.5278   391.9683 </r>
       <r>     0.1731    29.6207   395.8260 </r>
       <r>     0.2888    31.8357   400.1155 </r>
       <r>     0.4044    20.7024   404.3945 </r>
       <r>     0.5201    38.8705   410.3625 </r>
       <r>     0.6358    28.3230   414.7426 </r>
       <r>     0.7514    35.3617   420.8900 </r>
       <r>     0.8671    32.2138   426.5926 </r>
       <r>     0.9828    38.2939   432.8625 </r>
       <r>     1.0984    33.4894   438.9068 </r>
       <r>     1.2141    48.7700   446.6409 </r>
       <r>     1.3297     1.1528   448.0000 </r>
       <r>     1.4454     0.0000   448.0000 </r>
       <r>     1.5611     0.0000   448.0000 </r>
       <r>     1.6767     0.0000   448.0000 </r>
       <r>     1.7924     0.0000   448.0000 </r>
       <r>     1.9081     0.0000   448.0000 </r>
       <r>     2.0237     0.0000   448.0000 </r>
       <r>     2.1394     0.0000   448.0000 </r>
       <r>     2.2550     0.0000   448.0000 </r>
       <r>     2.3707     0.0000   448.0000 </r>
       <r>     2.4864     0.0000   448.0000 </r>
       <r>     2.6020     0.0000   448.0000 </r>
       <r>     2.7177     0.0000   448.0000 </r>
       <r>     2.8334     0.0000   448.0000 </r>
      </set>
     </set>
    </array>
   </total>
  </dos>
 </calculation>
 <structure name="finalpos" >
  <crystal>
   <varray name="basis" >
    <v>      21.95362151       0.02333032       0.00000000 </v>
    <v>       0.02261993      21.88757065       0.00000000 </v>
    <v>       0.00000000       0.00000000      20.00000000 </v>
   </varray>
   <i name="volume">   9610.21828237 </i>
   <varray name="rec_basis" >
    <v>       0.04555062      -0.00004707       0.00000000 </v>
    <v>      -0.00004855       0.04568808       0.00000000 </v>
    <v>       0.00000000       0.00000000       0.05000000 </v>
   </varray>
  </crystal>
  <varray name="positions" >
   <v>       0.01153585       0.27682648       0.50873949 </v>
   <v>       0.02511706       0.56226125       0.35147446 </v>
   <v>       0.91604296       0.33175191       0.41743359 </v>
   <v>       0.00147578       0.71979905       0.52708098 </v>
   <v>       0.51911119       0.96792423       0.33606097 </v>
   <v>       0.34820113       0.10461028       0.38385828 </v>
   <v>       0.72172098       0.99688462       0.41585886 </v>
   <v>       0.27651497       0.00636720       0.43629246 </v>
   <v>       0.00257208       0.51405349       0.33040147 </v>
   <v>       0.89491017       0.35085596       0.36375224 </v>
   <v>       0.05583605       0.59829324       0.31746015 </v>
   <v>       0.89580888       0.28725403       0.44894671 </v>
   <v>       0.53298000       0.99036200       0.28126431 </v>
   <v>       0.38171681       0.13038707       0.34246571 </v>
   <v>       0.47636464       0.93215477       0.34598027 </v>
   <v>       0.29380409       0.11795095       0.39358121 </v>
   <v>       0.00083661       0.21313199       0.60946542 </v>
   <v>       0.99192240       0.11511643       0.67234092 </v>
   <v>       0.99036822       0.89044980       0.67923996 </v>
   <v>       0.99449275       0.78908868       0.62235819 </v>
   <v>       0.11288230       0.99856904       0.52273411 </v>
   <v>       0.88036076       0.99505110       0.51458764 </v>
   <v>       0.94575904       0.00263119       0.65333568 </v>
   <v>       0.02463981       0.00210754       0.66444293 </v>
   <v>       0.76709219       0.99013534       0.50895714 </v>
   <v>       0.22605385       0.00942371       0.52506179 </v>
   <v>       0.09669084       0.46340369       0.52129387 </v>
   <v>       0.09635204       0.35146629       0.53872430 </v>
   <v>       0.98903454       0.62976528       0.60448169 </v>
   <v>       0.99385007       0.51908875       0.57657123 </v>
   <v>       0.44944297       0.92720270       0.52927057 </v>
   <v>       0.33703996       0.93250214       0.51974714 </v>
   <v>       0.66668505       0.01654759       0.54151841 </v>
   <v>       0.55529466       0.01866615       0.55864863 </v>
   <v>       0.99981004       0.88001364       0.43185021 </v>
   <v>       0.00610060       0.11235736       0.42499844 </v>
   <v>       0.21340230       0.99547814       0.33809013 </v>
   <v>       0.11565904       0.99276380       0.27490537 </v>
   <v>       0.89251000       0.00151803       0.26711366 </v>
   <v>       0.79111763       0.00109272       0.32332581 </v>
   <v>       0.00226239       0.95776169       0.28686213 </v>
   <v>       0.00473224       0.03746841       0.28837078 </v>
   <v>       0.01236260       0.22409003       0.42146374 </v>
   <v>       0.99547024       0.76763991       0.43545882 </v>
   <v>       0.02090597       0.67286408       0.39692805 </v>
   <v>       0.93137533       0.44847795       0.40607394 </v>
   <v>       0.63815866       0.97623131       0.33264461 </v>
   <v>       0.46425215       0.08393884       0.39922506 </v>
   <v>       0.99800621       0.05714616       0.51421287 </v>
   <v>       0.99413588       0.05841526       0.58404696 </v>
   <v>       0.99307844       0.94243100       0.58757237 </v>
   <v>       0.99631471       0.93987743       0.51771823 </v>
   <v>       0.99267447       0.88772492       0.62473995 </v>
   <v>       0.99487699       0.83147067       0.59382206 </v>
   <v>       0.99714174       0.82805860       0.52334415 </v>
   <v>       0.00416662       0.16875990       0.51312605 </v>
   <v>       0.99994525       0.16936668       0.58350645 </v>
   <v>       0.99501150       0.11493886       0.61780906 </v>
   <v>       0.98916803       0.00148062       0.62529058 </v>
   <v>       0.01291898       0.33583975       0.48546623 </v>
   <v>       0.06041457       0.43581742       0.49949437 </v>
   <v>       0.06053356       0.37327111       0.50940950 </v>
   <v>       0.99608281       0.61472619       0.55308677 </v>
   <v>       0.99871591       0.55319936       0.53719305 </v>
   <v>       0.36528389       0.96698635       0.49560172 </v>
   <v>       0.94071139       0.99737560       0.42912124 </v>
   <v>       0.94363945       0.99838766       0.35920101 </v>
   <v>       0.05912292       0.99489423       0.36315964 </v>
   <v>       0.05782286       0.99575359       0.43311760 </v>
   <v>       0.11344243       0.99674170       0.46810616 </v>
   <v>       0.16930401       0.99695653       0.43455753 </v>
   <v>       0.16978413       0.99469036       0.36403035 </v>
   <v>       0.11547996       0.99352639       0.32952359 </v>
   <v>       0.88940721       0.00018985       0.32162709 </v>
   <v>       0.83318149       0.99996666       0.35215421 </v>
   <v>       0.82925070       0.99751113       0.42259332 </v>
   <v>       0.88310630       0.99660426       0.46002469 </v>
   <v>       0.99784126       0.88234027       0.48641645 </v>
   <v>       0.00289377       0.11281604       0.47953046 </v>
   <v>       0.99806534       0.99738852       0.47354065 </v>
   <v>       0.00253202       0.99710202       0.32148729 </v>
   <v>       0.99825912       0.76818185       0.49071467 </v>
   <v>       0.76890437       0.99491371       0.45387370 </v>
   <v>       0.00969534       0.22642294       0.47654781 </v>
   <v>       0.22730615       0.00358090       0.47016441 </v>
   <v>       0.96794021       0.36530645       0.44580186 </v>
   <v>       0.96823528       0.42846813       0.43514869 </v>
   <v>       0.01302136       0.46499653       0.46405514 </v>
   <v>       0.00742688       0.53244117       0.47118426 </v>
   <v>       0.01403866       0.57832301       0.42223196 </v>
   <v>       0.01288107       0.64057184       0.43741122 </v>
   <v>       0.00303805       0.65990570       0.50354246 </v>
   <v>       0.33615727       0.01122383       0.45510446 </v>
   <v>       0.37440887       0.05505277       0.42391161 </v>
   <v>       0.43748622       0.05078224       0.42724366 </v>
   <v>       0.46550715       0.00414682       0.46379361 </v>
   <v>       0.42843627       0.96374803       0.50011902 </v>
   <v>       0.53238579       0.99643272       0.45706094 </v>
   <v>       0.55803617       0.98369106       0.39404671 </v>
   <v>       0.62023210       0.98422712       0.38264279 </v>
   <v>       0.66097790       0.99536168       0.43542505 </v>
   <v>       0.63655671       0.00636403       0.49961055 </v>
   <v>       0.57360787       0.00720451       0.50947976 </v>
  </varray>
 </structure>
</modeling>
