<?xml version="1.0" encoding="ISO-8859-1"?>
<modeling>
 <generator>
  <i name="program" type="string">vasp </i>
  <i name="version" type="string">5.4.4.18Apr17-6-g9f103f2a35  </i>
  <i name="subversion" type="string">(build Jun 07 2020 16:50:00) complex            parallel </i>
  <i name="platform" type="string">LinuxIFC </i>
  <i name="date" type="string">2023 03 05 </i>
  <i name="time" type="string">18:04:47 </i>
 </generator>
 <incar>
  <i type="string" name="SYSTEM">Simulation for cell shape cell volume r</i>
  <i type="int" name="ISTART">     1</i>
  <i type="string" name="PREC">high</i>
  <i type="string" name="ALGO">48</i>
  <i type="int" name="ICHARG">    11</i>
  <i type="int" name="NELM">   200</i>
  <i type="int" name="IBRION">    -1</i>
  <i name="EDIFF">      0.00001000</i>
  <i name="EDIFFG">     -0.01000000</i>
  <i type="int" name="NSW">     0</i>
  <i type="int" name="ISIF">     2</i>
  <i name="ENCUT">    500.00000000</i>
  <i name="POTIM">      0.30000000</i>
  <i type="string" name="LREAL">A</i>
  <i type="int" name="ISMEAR">     0</i>
  <i name="SIGMA">      0.01000000</i>
  <i type="int" name="NWRITE">     0</i>
  <i type="logical" name="LWAVE"> F  </i>
  <i type="logical" name="LCHARG"> F  </i>
  <v type="int" name="KPOINT_BSE">    -1     0     0     0</v>
  <i type="int" name="NELM">   200</i>
  <i type="string" name="GGA">PE</i>
 </incar>
 <structure name="primitive_cell" >
  <crystal>
   <varray name="basis" >
    <v>      29.18688138       0.07927581       0.00000000 </v>
    <v>     -14.52478630      25.10068165       0.00000000 </v>
    <v>       0.00000000       0.00000000      20.00000000 </v>
   </varray>
   <i name="volume">  14675.24164076 </i>
   <varray name="rec_basis" >
    <v>       0.03420820       0.01979495       0.00000000 </v>
    <v>      -0.00010804       0.03977704       0.00000000 </v>
    <v>       0.00000000       0.00000000       0.05000000 </v>
   </varray>
  </crystal>
  <varray name="positions" >
   <v>       0.30831955      -0.30367730      -0.48323545 </v>
   <v>       0.36104994      -0.28239064      -0.48386523 </v>
   <v>       0.28174404      -0.35728426      -0.48309358 </v>
   <v>       0.22723998      -0.38123686      -0.47696475 </v>
   <v>       0.39182222      -0.22757541      -0.47807619 </v>
   <v>       0.38767916      -0.30925630      -0.48456558 </v>
   <v>       0.30300871      -0.38902034      -0.48351104 </v>
   <v>       0.35624613      -0.36231062      -0.48410336 </v>
   <v>       0.36587039      -0.20943529       0.43373947 </v>
   <v>       0.38970688      -0.19552347       0.47986621 </v>
   <v>       0.19569867      -0.41537878       0.48075795 </v>
   <v>       0.20987884      -0.42522796       0.43473686 </v>
   <v>       0.38018987      -0.39317564      -0.47860333 </v>
   <v>       0.42022493      -0.13793875       0.49081131 </v>
   <v>       0.14257947      -0.41616289      -0.40601962 </v>
   <v>       0.13843190      -0.44243384       0.49127286 </v>
   <v>       0.44210275      -0.14269575      -0.40660602 </v>
   <v>       0.42486854      -0.36532035       0.43396206 </v>
   <v>       0.41482657      -0.38989314       0.47958385 </v>
   <v>       0.44544857      -0.11676499      -0.44802400 </v>
   <v>       0.11704047      -0.43853706      -0.44766340 </v>
   <v>       0.42587484      -0.10220127       0.43982919 </v>
   <v>       0.40662884      -0.11706438       0.39141533 </v>
   <v>       0.10321244      -0.47226039       0.43997746 </v>
   <v>       0.11827489      -0.47655928       0.39165759 </v>
   <v>       0.47545229      -0.06206259      -0.44215425 </v>
   <v>       0.44231026      -0.41993490       0.49033956 </v>
   <v>       0.06264687      -0.46312657      -0.44220538 </v>
   <v>       0.41651312      -0.44149795      -0.40680331 </v>
   <v>       0.45466780      -0.04932044       0.44589443 </v>
   <v>       0.43886925      -0.44484610      -0.44832395 </v>
   <v>       0.05062188      -0.49618131       0.44561162 </v>
   <v>       0.06384194      -0.45445740      -0.32682726 </v>
   <v>       0.48301931      -0.06396628      -0.32688854 </v>
   <v>       0.47988193      -0.02906659      -0.49623468 </v>
   <v>       0.03999986      -0.45693520      -0.37901854 </v>
   <v>       0.03014099      -0.49139987      -0.49659240 </v>
   <v>      -0.49569349      -0.03965416      -0.37892927 </v>
   <v>       0.47630555      -0.40619626       0.39074523 </v>
   <v>       0.47221633      -0.42539871       0.43920157 </v>
   <v>       0.00480365      -0.42476327       0.43384015 </v>
   <v>      -0.00069541      -0.45377352      -0.38326462 </v>
   <v>       0.46392794      -0.47444796      -0.44242369 </v>
   <v>      -0.45192968       0.00128404      -0.38297870 </v>
   <v>      -0.42908255      -0.00439365       0.43388170 </v>
   <v>      -0.49002780       0.03011753      -0.49171823 </v>
   <v>      -0.02870971       0.47945993      -0.49224013 </v>
   <v>       0.49646792      -0.45398245       0.44520422 </v>
   <v>       0.45633483      -0.48066275      -0.32695430 </v>
   <v>      -0.03649669      -0.46513118       0.41657206 </v>
   <v>       0.49259228       0.05208259      -0.44672888 </v>
   <v>       0.49209027      -0.47892469      -0.49673698 </v>
   <v>       0.45837467       0.49723518      -0.37884694 </v>
   <v>      -0.42815792       0.03706020       0.41642914 </v>
   <v>      -0.05024593       0.43984051      -0.44751388 </v>
   <v>      -0.06028281       0.49037072       0.46473914 </v>
   <v>      -0.44788075       0.06154314       0.46487242 </v>
   <v>      -0.06008352      -0.47125341       0.36305324 </v>
   <v>       0.42696652       0.42904095       0.43340295 </v>
   <v>      -0.41143831       0.06028174       0.36246414 </v>
   <v>       0.45526340       0.45310878      -0.38243806 </v>
   <v>      -0.48284789       0.10512494      -0.44281972 </v>
   <v>      -0.47843869       0.49148430      -0.49217278 </v>
   <v>      -0.10291805       0.41131966      -0.44338870 </v>
   <v>      -0.42270158       0.11642053       0.46818014 </v>
   <v>      -0.11477660       0.46064244       0.46828331 </v>
   <v>      -0.49777748       0.12147589      -0.40485338 </v>
   <v>       0.46749703       0.42864261       0.41590320 </v>
   <v>      -0.43954728      -0.49070538      -0.44677672 </v>
   <v>      -0.44010043       0.13937235      -0.48364096 </v>
   <v>      -0.11885474       0.37983699      -0.40561380 </v>
   <v>      -0.13725369       0.42005366      -0.48375871 </v>
   <v>      -0.48831769       0.44944180       0.46418756 </v>
   <v>      -0.13963356       0.46887907       0.43542922 </v>
   <v>      -0.38989516       0.14118912       0.43497303 </v>
   <v>       0.47394495       0.41150602       0.36218320 </v>
   <v>      -0.41052474       0.48542194      -0.44284885 </v>
   <v>      -0.41471316       0.19704032      -0.47562935 </v>
   <v>      -0.45798379       0.42508104       0.46743960 </v>
   <v>      -0.19451887       0.38788238      -0.47555485 </v>
   <v>      -0.43308067       0.21222832      -0.44023825 </v>
   <v>      -0.37969060      -0.49936632      -0.40448305 </v>
   <v>      -0.41797990       0.44302029      -0.48412593 </v>
   <v>      -0.20946122       0.35428282      -0.44013456 </v>
   <v>      -0.37269516       0.22824850       0.49154591 </v>
   <v>      -0.46535873       0.39237380       0.43406476 </v>
   <v>      -0.22563333       0.39892087       0.49162862 </v>
   <v>      -0.38537265       0.41812431      -0.47608354 </v>
   <v>      -0.35188828       0.28302982       0.49570209 </v>
   <v>      -0.28004605       0.36523604       0.49570610 </v>
   <v>      -0.35245128       0.43647357      -0.43999425 </v>
   <v>      -0.38557925       0.30199693       0.49496941 </v>
   <v>      -0.39542334       0.37637380       0.49042174 </v>
   <v>      -0.29880913       0.31243775       0.49600738 </v>
   <v>      -0.30933535       0.38928328       0.49483099 </v>
   <v>      -0.36177251       0.35543739       0.49494433 </v>
  </varray>
 </structure>
 <varray name="primitive_index" >
  <v type="int" >        1 </v>
  <v type="int" >       26 </v>
  <v type="int" >       25 </v>
  <v type="int" >        4 </v>
  <v type="int" >        6 </v>
  <v type="int" >        2 </v>
  <v type="int" >        3 </v>
  <v type="int" >       27 </v>
  <v type="int" >       90 </v>
  <v type="int" >       56 </v>
  <v type="int" >       66 </v>
  <v type="int" >       96 </v>
  <v type="int" >        5 </v>
  <v type="int" >       54 </v>
  <v type="int" >       85 </v>
  <v type="int" >       64 </v>
  <v type="int" >       79 </v>
  <v type="int" >       93 </v>
  <v type="int" >       61 </v>
  <v type="int" >       36 </v>
  <v type="int" >       50 </v>
  <v type="int" >       55 </v>
  <v type="int" >       89 </v>
  <v type="int" >       65 </v>
  <v type="int" >       95 </v>
  <v type="int" >       35 </v>
  <v type="int" >       59 </v>
  <v type="int" >       49 </v>
  <v type="int" >       82 </v>
  <v type="int" >       19 </v>
  <v type="int" >       43 </v>
  <v type="int" >       23 </v>
  <v type="int" >       71 </v>
  <v type="int" >       67 </v>
  <v type="int" >       34 </v>
  <v type="int" >       18 </v>
  <v type="int" >       48 </v>
  <v type="int" >       14 </v>
  <v type="int" >       92 </v>
  <v type="int" >       60 </v>
  <v type="int" >       78 </v>
  <v type="int" >       72 </v>
  <v type="int" >       42 </v>
  <v type="int" >       68 </v>
  <v type="int" >       74 </v>
  <v type="int" >       33 </v>
  <v type="int" >       47 </v>
  <v type="int" >       21 </v>
  <v type="int" >       69 </v>
  <v type="int" >       24 </v>
  <v type="int" >       13 </v>
  <v type="int" >       41 </v>
  <v type="int" >       16 </v>
  <v type="int" >       20 </v>
  <v type="int" >       17 </v>
  <v type="int" >       62 </v>
  <v type="int" >       52 </v>
  <v type="int" >       77 </v>
  <v type="int" >       76 </v>
  <v type="int" >       73 </v>
  <v type="int" >       70 </v>
  <v type="int" >       32 </v>
  <v type="int" >       40 </v>
  <v type="int" >       46 </v>
  <v type="int" >       53 </v>
  <v type="int" >       63 </v>
  <v type="int" >       80 </v>
  <v type="int" >       22 </v>
  <v type="int" >       15 </v>
  <v type="int" >       31 </v>
  <v type="int" >       86 </v>
  <v type="int" >       45 </v>
  <v type="int" >       57 </v>
  <v type="int" >       94 </v>
  <v type="int" >       88 </v>
  <v type="int" >       75 </v>
  <v type="int" >       39 </v>
  <v type="int" >       37 </v>
  <v type="int" >       58 </v>
  <v type="int" >       51 </v>
  <v type="int" >       81 </v>
  <v type="int" >       83 </v>
  <v type="int" >       38 </v>
  <v type="int" >       87 </v>
  <v type="int" >       12 </v>
  <v type="int" >       91 </v>
  <v type="int" >       10 </v>
  <v type="int" >       44 </v>
  <v type="int" >       29 </v>
  <v type="int" >       28 </v>
  <v type="int" >       84 </v>
  <v type="int" >        8 </v>
  <v type="int" >       11 </v>
  <v type="int" >        7 </v>
  <v type="int" >        9 </v>
  <v type="int" >       30 </v>
 </varray>
 <kpoints>
  <generation param="listgenerated">
   <i name="divisions" type="int">      20 </i>
   <v>       0.00000000       0.00000000       0.00000000 </v>
   <v>       0.50000000       0.00000000       0.00000000 </v>
   <v>       0.33333333       0.33333333       0.00000000 </v>
   <v>       0.00000000       0.00000000       0.00000000 </v>
  </generation>
  <varray name="kpointlist" >
   <v>       0.00000000       0.00000000       0.00000000 </v>
   <v>       0.02631579       0.00000000       0.00000000 </v>
   <v>       0.05263158       0.00000000       0.00000000 </v>
   <v>       0.07894737       0.00000000       0.00000000 </v>
   <v>       0.10526316       0.00000000       0.00000000 </v>
   <v>       0.13157895       0.00000000       0.00000000 </v>
   <v>       0.15789474       0.00000000       0.00000000 </v>
   <v>       0.18421053       0.00000000       0.00000000 </v>
   <v>       0.21052632       0.00000000       0.00000000 </v>
   <v>       0.23684211       0.00000000       0.00000000 </v>
   <v>       0.26315789       0.00000000       0.00000000 </v>
   <v>       0.28947368       0.00000000       0.00000000 </v>
   <v>       0.31578947       0.00000000       0.00000000 </v>
   <v>       0.34210526       0.00000000       0.00000000 </v>
   <v>       0.36842105       0.00000000       0.00000000 </v>
   <v>       0.39473684       0.00000000       0.00000000 </v>
   <v>       0.42105263       0.00000000       0.00000000 </v>
   <v>       0.44736842       0.00000000       0.00000000 </v>
   <v>       0.47368421       0.00000000       0.00000000 </v>
   <v>       0.50000000       0.00000000       0.00000000 </v>
   <v>       0.50000000       0.00000000       0.00000000 </v>
   <v>       0.49122807       0.01754386       0.00000000 </v>
   <v>       0.48245614       0.03508772       0.00000000 </v>
   <v>       0.47368421       0.05263158       0.00000000 </v>
   <v>       0.46491228       0.07017544       0.00000000 </v>
   <v>       0.45614035       0.08771930       0.00000000 </v>
   <v>       0.44736842       0.10526316       0.00000000 </v>
   <v>       0.43859649       0.12280702       0.00000000 </v>
   <v>       0.42982456       0.14035088       0.00000000 </v>
   <v>       0.42105263       0.15789474       0.00000000 </v>
   <v>       0.41228070       0.17543860       0.00000000 </v>
   <v>       0.40350877       0.19298246       0.00000000 </v>
   <v>       0.39473684       0.21052632       0.00000000 </v>
   <v>       0.38596491       0.22807018       0.00000000 </v>
   <v>       0.37719298       0.24561404       0.00000000 </v>
   <v>       0.36842105       0.26315789       0.00000000 </v>
   <v>       0.35964912       0.28070175       0.00000000 </v>
   <v>       0.35087719       0.29824561       0.00000000 </v>
   <v>       0.34210526       0.31578947       0.00000000 </v>
   <v>       0.33333333       0.33333333       0.00000000 </v>
   <v>       0.33333333       0.33333333       0.00000000 </v>
   <v>       0.31578947       0.31578947       0.00000000 </v>
   <v>       0.29824561       0.29824561       0.00000000 </v>
   <v>       0.28070175       0.28070175       0.00000000 </v>
   <v>       0.26315789       0.26315789       0.00000000 </v>
   <v>       0.24561404       0.24561404       0.00000000 </v>
   <v>       0.22807018       0.22807018       0.00000000 </v>
   <v>       0.21052632       0.21052632       0.00000000 </v>
   <v>       0.19298246       0.19298246       0.00000000 </v>
   <v>       0.17543860       0.17543860       0.00000000 </v>
   <v>       0.15789474       0.15789474       0.00000000 </v>
   <v>       0.14035088       0.14035088       0.00000000 </v>
   <v>       0.12280702       0.12280702       0.00000000 </v>
   <v>       0.10526316       0.10526316       0.00000000 </v>
   <v>       0.08771930       0.08771930       0.00000000 </v>
   <v>       0.07017544       0.07017544       0.00000000 </v>
   <v>       0.05263158       0.05263158       0.00000000 </v>
   <v>       0.03508772       0.03508772       0.00000000 </v>
   <v>       0.01754386       0.01754386       0.00000000 </v>
   <v>       0.00000000       0.00000000       0.00000000 </v>
  </varray>
  <varray name="weights" >
   <v>       0.01666667 </v>
   <v>       0.01666667 </v>
   <v>       0.01666667 </v>
   <v>       0.01666667 </v>
   <v>       0.01666667 </v>
   <v>       0.01666667 </v>
   <v>       0.01666667 </v>
   <v>       0.01666667 </v>
   <v>       0.01666667 </v>
   <v>       0.01666667 </v>
   <v>       0.01666667 </v>
   <v>       0.01666667 </v>
   <v>       0.01666667 </v>
   <v>       0.01666667 </v>
   <v>       0.01666667 </v>
   <v>       0.01666667 </v>
   <v>       0.01666667 </v>
   <v>       0.01666667 </v>
   <v>       0.01666667 </v>
   <v>       0.01666667 </v>
   <v>       0.01666667 </v>
   <v>       0.01666667 </v>
   <v>       0.01666667 </v>
   <v>       0.01666667 </v>
   <v>       0.01666667 </v>
   <v>       0.01666667 </v>
   <v>       0.01666667 </v>
   <v>       0.01666667 </v>
   <v>       0.01666667 </v>
   <v>       0.01666667 </v>
   <v>       0.01666667 </v>
   <v>       0.01666667 </v>
   <v>       0.01666667 </v>
   <v>       0.01666667 </v>
   <v>       0.01666667 </v>
   <v>       0.01666667 </v>
   <v>       0.01666667 </v>
   <v>       0.01666667 </v>
   <v>       0.01666667 </v>
   <v>       0.01666667 </v>
   <v>       0.01666667 </v>
   <v>       0.01666667 </v>
   <v>       0.01666667 </v>
   <v>       0.01666667 </v>
   <v>       0.01666667 </v>
   <v>       0.01666667 </v>
   <v>       0.01666667 </v>
   <v>       0.01666667 </v>
   <v>       0.01666667 </v>
   <v>       0.01666667 </v>
   <v>       0.01666667 </v>
   <v>       0.01666667 </v>
   <v>       0.01666667 </v>
   <v>       0.01666667 </v>
   <v>       0.01666667 </v>
   <v>       0.01666667 </v>
   <v>       0.01666667 </v>
   <v>       0.01666667 </v>
   <v>       0.01666667 </v>
   <v>       0.01666667 </v>
  </varray>
 </kpoints>
 <parameters>
  <separator name="general" >
   <i type="string" name="SYSTEM">Simulation for cell shape cell volume r</i>
   <i type="logical" name="LCOMPAT"> F  </i>
  </separator>
  <separator name="electronic" >
   <i type="string" name="PREC">high</i>
   <i name="ENMAX">    500.00000000</i>
   <i name="ENAUG">    644.87300000</i>
   <i name="EDIFF">      0.00001000</i>
   <i type="int" name="IALGO">    38</i>
   <i type="int" name="IWAVPR">    10</i>
   <i type="int" name="NBANDS">   240</i>
   <i name="NELECT">    378.00000000</i>
   <i type="int" name="TURBO">     0</i>
   <i type="int" name="IRESTART">     0</i>
   <i type="int" name="NREBOOT">     0</i>
   <i type="int" name="NMIN">     0</i>
   <i name="EREF">      0.00000000</i>
   <separator name="electronic smearing" >
    <i type="int" name="ISMEAR">     0</i>
    <i name="SIGMA">      0.01000000</i>
    <i name="KSPACING">      0.50000000</i>
    <i type="logical" name="KGAMMA"> T  </i>
   </separator>
   <separator name="electronic projectors" >
    <i type="logical" name="LREAL"> T  </i>
    <v name="ROPT">     -0.00040000     -0.00040000     -0.00040000     -0.00040000</v>
    <i type="int" name="LMAXPAW">  -100</i>
    <i type="int" name="LMAXMIX">     2</i>
    <i type="logical" name="NLSPLINE"> F  </i>
   </separator>
   <separator name="electronic startup" >
    <i type="int" name="ISTART">     1</i>
    <i type="int" name="ICHARG">    11</i>
    <i type="int" name="INIWAV">     1</i>
   </separator>
   <separator name="electronic spin" >
    <i type="int" name="ISPIN">     1</i>
    <i type="logical" name="LNONCOLLINEAR"> F  </i>
    <v name="MAGMOM">      1.00000000      1.00000000      1.00000000      1.00000000      1.00000000      1.00000000      1.00000000      1.00000000      1.00000000      1.00000000      1.00000000      1.00000000      1.00000000      1.00000000      1.00000000      1.00000000      1.00000000      1.00000000      1.00000000      1.00000000
      1.00000000      1.00000000      1.00000000      1.00000000      1.00000000      1.00000000      1.00000000      1.00000000      1.00000000      1.00000000      1.00000000      1.00000000      1.00000000      1.00000000      1.00000000      1.00000000      1.00000000      1.00000000      1.00000000      1.00000000
      1.00000000      1.00000000      1.00000000      1.00000000      1.00000000      1.00000000      1.00000000      1.00000000      1.00000000      1.00000000      1.00000000      1.00000000      1.00000000      1.00000000      1.00000000      1.00000000      1.00000000      1.00000000      1.00000000      1.00000000
      1.00000000      1.00000000      1.00000000      1.00000000      1.00000000      1.00000000      1.00000000      1.00000000      1.00000000      1.00000000      1.00000000      1.00000000      1.00000000      1.00000000      1.00000000      1.00000000      1.00000000      1.00000000      1.00000000      1.00000000
      1.00000000      1.00000000      1.00000000      1.00000000      1.00000000      1.00000000      1.00000000      1.00000000      1.00000000      1.00000000      1.00000000      1.00000000      1.00000000      1.00000000      1.00000000      1.00000000</v>
    <i name="NUPDOWN">     -1.00000000</i>
    <i type="logical" name="LSORBIT"> F  </i>
    <v name="SAXIS">      0.00000000      0.00000000      1.00000000</v>
    <i type="logical" name="LSPIRAL"> F  </i>
    <v name="QSPIRAL">      0.00000000      0.00000000      0.00000000</v>
    <i type="logical" name="LZEROZ"> F  </i>
   </separator>
   <separator name="electronic exchange-correlation" >
    <i type="logical" name="LASPH"> F  </i>
    <i type="logical" name="LMETAGGA"> F  </i>
   </separator>
   <separator name="electronic convergence" >
    <i type="int" name="NELM">   200</i>
    <i type="int" name="NELMDL">     0</i>
    <i type="int" name="NELMIN">     2</i>
    <i name="ENINI">    500.00000000</i>
    <separator name="electronic convergence detail" >
     <i type="logical" name="LDIAG"> T  </i>
     <i type="logical" name="LSUBROT"> F  </i>
     <i name="WEIMIN">      0.00000000</i>
     <i name="EBREAK">      0.00000001</i>
     <i name="DEPER">      0.30000000</i>
     <i type="int" name="NRMM">     4</i>
     <i name="TIME">      0.40000000</i>
    </separator>
   </separator>
   <separator name="electronic mixer" >
    <i name="AMIX">      0.40000000</i>
    <i name="BMIX">      1.00000000</i>
    <i name="AMIN">      0.10000000</i>
    <i name="AMIX_MAG">      1.60000000</i>
    <i name="BMIX_MAG">      1.00000000</i>
    <separator name="electronic mixer details" >
     <i type="int" name="IMIX">     4</i>
     <i type="logical" name="MIXFIRST"> F  </i>
     <i type="int" name="MAXMIX">   -45</i>
     <i name="WC">    100.00000000</i>
     <i type="int" name="INIMIX">     1</i>
     <i type="int" name="MIXPRE">     1</i>
     <i type="int" name="MREMOVE">     5</i>
    </separator>
   </separator>
   <separator name="electronic dipolcorrection" >
    <i type="logical" name="LDIPOL"> F  </i>
    <i type="logical" name="LMONO"> F  </i>
    <i type="int" name="IDIPOL">     0</i>
    <i name="EPSILON">      1.00000000</i>
    <v name="DIPOL">   -100.00000000   -100.00000000   -100.00000000</v>
    <i name="EFIELD">      0.00000000</i>
   </separator>
  </separator>
  <separator name="grids" >
   <i type="int" name="NGX">   216</i>
   <i type="int" name="NGY">   216</i>
   <i type="int" name="NGZ">   150</i>
   <i type="int" name="NGXF">   324</i>
   <i type="int" name="NGYF">   320</i>
   <i type="int" name="NGZF">   224</i>
   <i type="logical" name="ADDGRID"> F  </i>
  </separator>
  <separator name="ionic" >
   <i type="int" name="NSW">     0</i>
   <i type="int" name="IBRION">    -1</i>
   <i type="int" name="MDALGO">     0</i>
   <i type="int" name="ISIF">     2</i>
   <i name="PSTRESS">      0.00000000</i>
   <i name="EDIFFG">     -0.01000000</i>
   <i type="int" name="NFREE">     0</i>
   <i name="POTIM">      0.30000000</i>
   <i name="SMASS">     -3.00000000</i>
   <i name="SCALEE">      1.00000000</i>
  </separator>
  <separator name="ionic md" >
   <i name="TEBEG">      0.00010000</i>
   <i name="TEEND">      0.00010000</i>
   <i type="int" name="NBLOCK">     1</i>
   <i type="int" name="KBLOCK">     1</i>
   <i type="int" name="NPACO">   256</i>
   <i name="APACO">     16.00000000</i>
  </separator>
  <separator name="symmetry" >
   <i type="int" name="ISYM">     2</i>
   <i name="SYMPREC">      0.00001000</i>
  </separator>
  <separator name="dos" >
   <i type="int" name="LORBIT">     0</i>
   <v name="RWIGS">     -1.00000000     -1.00000000     -1.00000000     -1.00000000</v>
   <i type="int" name="NEDOS">   301</i>
   <i name="EMIN">     10.00000000</i>
   <i name="EMAX">    -10.00000000</i>
   <i name="EFERMI">      0.00000000</i>
  </separator>
  <separator name="writing" >
   <i type="int" name="NWRITE">     0</i>
   <i type="logical" name="LWAVE"> F  </i>
   <i type="logical" name="LDOWNSAMPLE"> F  </i>
   <i type="logical" name="LCHARG"> F  </i>
   <i type="logical" name="LPARD"> F  </i>
   <i type="logical" name="LVTOT"> F  </i>
   <i type="logical" name="LVHAR"> F  </i>
   <i type="logical" name="LELF"> F  </i>
   <i type="logical" name="LOPTICS"> F  </i>
   <v name="STM">      0.00000000      0.00000000      0.00000000      0.00000000      0.00000000      0.00000000      0.00000000</v>
  </separator>
  <separator name="performance" >
   <i type="int" name="NPAR">    16</i>
   <i type="int" name="NSIM">     4</i>
   <i type="int" name="NBLK">    -1</i>
   <i type="logical" name="LPLANE"> T  </i>
   <i type="logical" name="LSCALAPACK"> T  </i>
   <i type="logical" name="LSCAAWARE"> F  </i>
   <i type="logical" name="LSCALU"> F  </i>
   <i type="logical" name="LASYNC"> F  </i>
   <i type="logical" name="LORBITALREAL"> F  </i>
  </separator>
  <separator name="miscellaneous" >
   <i type="int" name="IDIOT">     3</i>
   <i type="int" name="ISPECIAL">     0</i>
   <i type="logical" name="LMUSIC"> F  </i>
   <v name="POMASS">     14.00100000     12.01100000     16.00000000      1.00000000</v>
   <v name="DARWINR">      0.00000000      0.00000000      0.00000000      0.00000000</v>
   <v name="DARWINV">      1.00000000      1.00000000      1.00000000      1.00000000</v>
   <i type="logical" name="LCORR"> T  </i>
  </separator>
  <i type="logical" name="GGA_COMPAT"> T  </i>
  <i type="logical" name="LBERRY"> F  </i>
  <i type="int" name="ICORELEVEL">     0</i>
  <i type="logical" name="LDAU"> F  </i>
  <i type="int" name="I_CONSTRAINED_M">     0</i>
  <separator name="electronic exchange-correlation" >
   <i type="string" name="GGA">PE</i>
   <i type="int" name="VOSKOWN">     0</i>
   <i type="logical" name="LHFCALC"> F  </i>
   <i type="string" name="PRECFOCK"></i>
   <i type="logical" name="LSYMGRAD"> F  </i>
   <i type="logical" name="LHFONE"> F  </i>
   <i type="logical" name="LRHFCALC"> F  </i>
   <i type="logical" name="LTHOMAS"> F  </i>
   <i type="logical" name="LMODELHF"> F  </i>
   <i name="ENCUT4O">     -1.00000000</i>
   <i type="int" name="EXXOEP">     0</i>
   <i type="int" name="FOURORBIT">     0</i>
   <i name="AEXX">      0.00000000</i>
   <i name="HFALPHA">      0.00000000</i>
   <i name="MCALPHA">      0.00000000</i>
   <i name="ALDAX">      1.00000000</i>
   <i name="AGGAX">      1.00000000</i>
   <i name="ALDAC">      1.00000000</i>
   <i name="AGGAC">      1.00000000</i>
   <i type="int" name="NKREDX">     1</i>
   <i type="int" name="NKREDY">     1</i>
   <i type="int" name="NKREDZ">     1</i>
   <i type="logical" name="SHIFTRED"> F  </i>
   <i type="logical" name="ODDONLY"> F  </i>
   <i type="logical" name="EVENONLY"> F  </i>
   <i type="int" name="LMAXFOCK">     0</i>
   <i type="int" name="NMAXFOCKAE">     0</i>
   <i type="logical" name="LFOCKAEDFT"> F  </i>
   <i name="HFSCREEN">      0.00000000</i>
   <i name="HFSCREENC">      0.00000000</i>
   <i type="int" name="NBANDSGWLOW">     0</i>
  </separator>
  <separator name="vdW DFT" >
   <i type="logical" name="LUSE_VDW"> F  </i>
   <i name="Zab_VDW">     -0.84910000</i>
   <i name="PARAM1">      0.12340000</i>
   <i name="PARAM2">      1.00000000</i>
   <i name="PARAM3">      0.00000000</i>
  </separator>
  <separator name="model GW" >
   <i type="int" name="MODEL_GW">     0</i>
   <i name="MODEL_EPS0">     91.72026025</i>
   <i name="MODEL_ALPHA">      1.00000000</i>
  </separator>
  <separator name="linear response parameters" >
   <i type="logical" name="LEPSILON"> F  </i>
   <i type="logical" name="LRPA"> F  </i>
   <i type="logical" name="LNABLA"> F  </i>
   <i type="logical" name="LVEL"> F  </i>
   <i type="int" name="KINTER">     0</i>
   <i name="CSHIFT">      0.10000000</i>
   <i name="OMEGAMAX">     -1.00000000</i>
   <i name="DEG_THRESHOLD">      0.00200000</i>
   <i name="RTIME">     -0.10000000</i>
   <i name="WPLASMAI">      0.00000000</i>
   <v name="DFIELD">      0.00000000      0.00000000      0.00000000</v>
   <v name="WPLASMA">      0.00000000      0.00000000      0.00000000      0.00000000      0.00000000      0.00000000      0.00000000      0.00000000      0.00000000</v>
  </separator>
  <separator name="orbital magnetization" >
   <i type="logical" name="NUCIND"> F  </i>
   <v name="MAGPOS">      0.00000000      0.00000000      0.00000000</v>
   <i type="logical" name="LNICSALL"> T  </i>
   <i type="logical" name="ORBITALMAG"> F  </i>
   <i type="logical" name="LMAGBLOCH"> F  </i>
   <i type="logical" name="LCHIMAG"> F  </i>
   <i type="logical" name="LGAUGE"> T  </i>
   <i type="int" name="MAGATOM">     0</i>
   <v name="MAGDIPOL">      0.00000000      0.00000000      0.00000000</v>
   <v name="AVECCONST">      0.00000000      0.00000000      0.00000000</v>
  </separator>
  <separator name="response functions" >
   <i type="logical" name="LADDER"> F  </i>
   <i type="logical" name="LRPAFORCE"> F  </i>
   <i type="logical" name="LFXC"> F  </i>
   <i type="logical" name="LHARTREE"> T  </i>
   <i type="int" name="IBSE">     0</i>
   <v type="int" name="KPOINT">    -1     0     0     0</v>
   <i type="logical" name="LTCTE"> F  </i>
   <i type="logical" name="LTETE"> F  </i>
   <i type="logical" name="LTRIPLET"> F  </i>
   <i type="logical" name="LFXCEPS"> F  </i>
   <i type="logical" name="LFXHEG"> F  </i>
   <i type="int" name="NATURALO">     2</i>
   <i type="logical" name="L2ORDER"> F  </i>
   <i type="logical" name="LMP2LT"> F  </i>
   <i type="logical" name="LUSEW"> F  </i>
   <i name="ENCUTGW">     -2.00000000</i>
   <i name="ENCUTGWSOFT">     -2.00000000</i>
   <i name="ENCUTLF">     -1.00000000</i>
   <i type="int" name="LMAXMP2">    -1</i>
   <i name="SCISSOR">      0.00000000</i>
   <i type="int" name="NOMEGA">     0</i>
   <i type="int" name="NOMEGAR">     0</i>
   <i type="int" name="NBANDSGW">    -1</i>
   <i type="int" name="NBANDSO">    -1</i>
   <i type="int" name="NBANDSV">    -1</i>
   <i type="int" name="NELM">   200</i>
   <i type="int" name="NELMHF">     1</i>
   <i type="int" name="DIM">     3</i>
   <i type="int" name="ANTIRES">     0</i>
   <i name="OMEGAMAX">    -30.00000000</i>
   <i name="OMEGAMIN">    -30.00000000</i>
   <i name="OMEGATL">   -200.00000000</i>
   <i type="int" name="OMEGAGRID">   140</i>
   <i name="CSHIFT">     -0.10000000</i>
   <i type="logical" name="SELFENERGY"> F  </i>
   <i type="logical" name="LSPECTRAL"> F  </i>
   <i type="logical" name="LSPECTRALGW"> F  </i>
   <i type="logical" name="LSINGLES"> F  </i>
   <i type="logical" name="LFERMIGW"> F  </i>
   <i type="logical" name="ODDONLYGW"> F  </i>
   <i type="logical" name="EVENONLYGW"> F  </i>
   <i type="int" name="NKREDLFX">     1</i>
   <i type="int" name="NKREDLFY">     1</i>
   <i type="int" name="NKREDLFZ">     1</i>
   <i type="int" name="MAXMEM">  2800</i>
   <i type="int" name="TELESCOPE">     0</i>
   <i type="int" name="TAUPAR">     1</i>
   <i type="int" name="OMEGAPAR">    -1</i>
   <i name="LAMBDA">      1.00000000</i>
  </separator>
  <separator name="External order field" >
   <i name="OFIELD_KAPPA">      0.00000000</i>
   <v name="OFIELD_K">      0.00000000      0.00000000      0.00000000</v>
   <i name="OFIELD_Q6_NEAR">      0.00000000</i>
   <i name="OFIELD_Q6_FAR">      0.00000000</i>
   <i name="OFIELD_A">      0.00000000</i>
  </separator>
  <separator name="solvation model" >
   <i type="logical" name="LSOL"> F  </i>
  </separator>
 </parameters>
 <atominfo>
  <atoms>      96 </atoms>
  <types>       4 </types>
  <array name="atoms" >
   <dimension dim="1">ion</dimension>
   <field type="string">element</field>
   <field type="int">atomtype</field>
   <set>
    <rc><c>N </c><c>   1</c></rc>
    <rc><c>N </c><c>   1</c></rc>
    <rc><c>N </c><c>   1</c></rc>
    <rc><c>N </c><c>   1</c></rc>
    <rc><c>N </c><c>   1</c></rc>
    <rc><c>N </c><c>   1</c></rc>
    <rc><c>N </c><c>   1</c></rc>
    <rc><c>N </c><c>   1</c></rc>
    <rc><c>N </c><c>   1</c></rc>
    <rc><c>N </c><c>   1</c></rc>
    <rc><c>N </c><c>   1</c></rc>
    <rc><c>N </c><c>   1</c></rc>
    <rc><c>N </c><c>   1</c></rc>
    <rc><c>N </c><c>   1</c></rc>
    <rc><c>N </c><c>   1</c></rc>
    <rc><c>N </c><c>   1</c></rc>
    <rc><c>N </c><c>   1</c></rc>
    <rc><c>N </c><c>   1</c></rc>
    <rc><c>N </c><c>   1</c></rc>
    <rc><c>N </c><c>   1</c></rc>
    <rc><c>N </c><c>   1</c></rc>
    <rc><c>N </c><c>   1</c></rc>
    <rc><c>N </c><c>   1</c></rc>
    <rc><c>N </c><c>   1</c></rc>
    <rc><c>C </c><c>   2</c></rc>
    <rc><c>C </c><c>   2</c></rc>
    <rc><c>C </c><c>   2</c></rc>
    <rc><c>C </c><c>   2</c></rc>
    <rc><c>C </c><c>   2</c></rc>
    <rc><c>C </c><c>   2</c></rc>
    <rc><c>C </c><c>   2</c></rc>
    <rc><c>C </c><c>   2</c></rc>
    <rc><c>C </c><c>   2</c></rc>
    <rc><c>C </c><c>   2</c></rc>
    <rc><c>C </c><c>   2</c></rc>
    <rc><c>C </c><c>   2</c></rc>
    <rc><c>C </c><c>   2</c></rc>
    <rc><c>C </c><c>   2</c></rc>
    <rc><c>C </c><c>   2</c></rc>
    <rc><c>C </c><c>   2</c></rc>
    <rc><c>C </c><c>   2</c></rc>
    <rc><c>C </c><c>   2</c></rc>
    <rc><c>C </c><c>   2</c></rc>
    <rc><c>C </c><c>   2</c></rc>
    <rc><c>C </c><c>   2</c></rc>
    <rc><c>C </c><c>   2</c></rc>
    <rc><c>C </c><c>   2</c></rc>
    <rc><c>C </c><c>   2</c></rc>
    <rc><c>C </c><c>   2</c></rc>
    <rc><c>C </c><c>   2</c></rc>
    <rc><c>C </c><c>   2</c></rc>
    <rc><c>C </c><c>   2</c></rc>
    <rc><c>C </c><c>   2</c></rc>
    <rc><c>C </c><c>   2</c></rc>
    <rc><c>C </c><c>   2</c></rc>
    <rc><c>C </c><c>   2</c></rc>
    <rc><c>C </c><c>   2</c></rc>
    <rc><c>C </c><c>   2</c></rc>
    <rc><c>C </c><c>   2</c></rc>
    <rc><c>C </c><c>   2</c></rc>
    <rc><c>C </c><c>   2</c></rc>
    <rc><c>C </c><c>   2</c></rc>
    <rc><c>C </c><c>   2</c></rc>
    <rc><c>C </c><c>   2</c></rc>
    <rc><c>C </c><c>   2</c></rc>
    <rc><c>C </c><c>   2</c></rc>
    <rc><c>O </c><c>   3</c></rc>
    <rc><c>O </c><c>   3</c></rc>
    <rc><c>O </c><c>   3</c></rc>
    <rc><c>O </c><c>   3</c></rc>
    <rc><c>O </c><c>   3</c></rc>
    <rc><c>O </c><c>   3</c></rc>
    <rc><c>O </c><c>   3</c></rc>
    <rc><c>O </c><c>   3</c></rc>
    <rc><c>O </c><c>   3</c></rc>
    <rc><c>O </c><c>   3</c></rc>
    <rc><c>O </c><c>   3</c></rc>
    <rc><c>O </c><c>   3</c></rc>
    <rc><c>H </c><c>   4</c></rc>
    <rc><c>H </c><c>   4</c></rc>
    <rc><c>H </c><c>   4</c></rc>
    <rc><c>H </c><c>   4</c></rc>
    <rc><c>H </c><c>   4</c></rc>
    <rc><c>H </c><c>   4</c></rc>
    <rc><c>H </c><c>   4</c></rc>
    <rc><c>H </c><c>   4</c></rc>
    <rc><c>H </c><c>   4</c></rc>
    <rc><c>H </c><c>   4</c></rc>
    <rc><c>H </c><c>   4</c></rc>
    <rc><c>H </c><c>   4</c></rc>
    <rc><c>H </c><c>   4</c></rc>
    <rc><c>H </c><c>   4</c></rc>
    <rc><c>H </c><c>   4</c></rc>
    <rc><c>H </c><c>   4</c></rc>
    <rc><c>H </c><c>   4</c></rc>
    <rc><c>H </c><c>   4</c></rc>
   </set>
  </array>
  <array name="atomtypes" >
   <dimension dim="1">type</dimension>
   <field type="int">atomspertype</field>
   <field type="string">element</field>
   <field>mass</field>
   <field>valence</field>
   <field type="string">pseudopotential</field>
   <set>
    <rc><c>  24</c><c>N </c><c>     14.00100000</c><c>      5.00000000</c><c>  PAW_PBE N 08Apr2002                   </c></rc>
    <rc><c>  42</c><c>C </c><c>     12.01100000</c><c>      4.00000000</c><c>  PAW_PBE C 08Apr2002                   </c></rc>
    <rc><c>  12</c><c>O </c><c>     16.00000000</c><c>      6.00000000</c><c>  PAW_PBE O 08Apr2002                   </c></rc>
    <rc><c>  18</c><c>H </c><c>      1.00000000</c><c>      1.00000000</c><c>  PAW_PBE H 15Jun2001                   </c></rc>
   </set>
  </array>
 </atominfo>
 <structure name="initialpos" >
  <crystal>
   <varray name="basis" >
    <v>      29.18688138       0.07927581       0.00000000 </v>
    <v>     -14.52478630      25.10068165       0.00000000 </v>
    <v>       0.00000000       0.00000000      20.00000000 </v>
   </varray>
   <i name="volume">  14675.24164076 </i>
   <varray name="rec_basis" >
    <v>       0.03420820       0.01979495       0.00000000 </v>
    <v>      -0.00010804       0.03977704       0.00000000 </v>
    <v>       0.00000000       0.00000000       0.05000000 </v>
   </varray>
  </crystal>
  <varray name="positions" >
   <v>       0.30831955       0.69632270       0.51676455 </v>
   <v>       0.38767916       0.69074370       0.51543442 </v>
   <v>       0.30300871       0.61097966       0.51648896 </v>
   <v>       0.22723998       0.61876314       0.52303525 </v>
   <v>       0.38018987       0.60682436       0.52139667 </v>
   <v>       0.39182222       0.77242459       0.52192381 </v>
   <v>       0.70119087       0.31243775       0.49600738 </v>
   <v>       0.61442075       0.30199693       0.49496941 </v>
   <v>       0.69066465       0.38928328       0.49483099 </v>
   <v>       0.77436667       0.39892087       0.49162862 </v>
   <v>       0.60457666       0.37637380       0.49042174 </v>
   <v>       0.62730484       0.22824850       0.49154591 </v>
   <v>       0.49259228       0.05208259       0.55327112 </v>
   <v>       0.50430651       0.96034584       0.62107073 </v>
   <v>       0.56045272       0.50929462       0.55322328 </v>
   <v>       0.45837467       0.49723518       0.62115306 </v>
   <v>       0.94975407       0.43984051       0.55248612 </v>
   <v>       0.03999986       0.54306480       0.62098146 </v>
   <v>       0.45466780       0.95067956       0.44589443 </v>
   <v>       0.57184208       0.03706020       0.41642914 </v>
   <v>       0.49646792       0.54601755       0.44520422 </v>
   <v>       0.46749703       0.42864261       0.41590320 </v>
   <v>       0.05062188       0.50381869       0.44561162 </v>
   <v>       0.96350331       0.53486882       0.41657206 </v>
   <v>       0.28174404       0.64271574       0.51690642 </v>
   <v>       0.36104994       0.71760936       0.51613477 </v>
   <v>       0.35624613       0.63768938       0.51589664 </v>
   <v>       0.71995395       0.36523604       0.49570610 </v>
   <v>       0.64811172       0.28302982       0.49570209 </v>
   <v>       0.63822749       0.35543739       0.49494433 </v>
   <v>       0.55989957       0.13937235       0.51635904 </v>
   <v>       0.51715211       0.10512494       0.55718028 </v>
   <v>       0.50997220       0.03011753       0.50828177 </v>
   <v>       0.47988193       0.97093341       0.50376532 </v>
   <v>       0.47545229       0.93793741       0.55784575 </v>
   <v>       0.44544857       0.88323501       0.55197600 </v>
   <v>       0.58528684       0.19704032       0.52437065 </v>
   <v>       0.58202010       0.44302029       0.51587407 </v>
   <v>       0.58947526       0.48542194       0.55715115 </v>
   <v>       0.52156131       0.49148430       0.50782722 </v>
   <v>       0.49209027       0.52107531       0.50326302 </v>
   <v>       0.46392794       0.52555204       0.55757631 </v>
   <v>       0.43886925       0.55515390       0.55167605 </v>
   <v>       0.61462735       0.41812431       0.52391646 </v>
   <v>       0.86274631       0.42005366       0.51624129 </v>
   <v>       0.89708195       0.41131966       0.55661130 </v>
   <v>       0.97129029       0.47945993       0.50775987 </v>
   <v>       0.03014099       0.50860013       0.50340760 </v>
   <v>       0.06264687       0.53687343       0.55779462 </v>
   <v>       0.11704047       0.56146294       0.55233660 </v>
   <v>       0.80548113       0.38788238       0.52444515 </v>
   <v>       0.55211925       0.06154314       0.46487242 </v>
   <v>       0.57729842       0.11642053       0.46818014 </v>
   <v>       0.42022493       0.86206125       0.49081131 </v>
   <v>       0.42587484       0.89779873       0.43982919 </v>
   <v>       0.38970688       0.80447653       0.47986621 </v>
   <v>       0.51168231       0.44944180       0.46418756 </v>
   <v>       0.54201621       0.42508104       0.46743960 </v>
   <v>       0.44231026       0.58006510       0.49033956 </v>
   <v>       0.47221633       0.57460129       0.43920157 </v>
   <v>       0.41482657       0.61010686       0.47958385 </v>
   <v>       0.93971719       0.49037072       0.46473914 </v>
   <v>       0.88522340       0.46064244       0.46828331 </v>
   <v>       0.13843190       0.55756616       0.49127286 </v>
   <v>       0.10321244       0.52773961       0.43997746 </v>
   <v>       0.19569867       0.58462122       0.48075795 </v>
   <v>       0.48301931       0.93603372       0.67311146 </v>
   <v>       0.54807032       0.00128404       0.61702130 </v>
   <v>       0.45633483       0.51933725       0.67304570 </v>
   <v>       0.45526340       0.45310878       0.61756194 </v>
   <v>       0.06384194       0.54554260       0.67317274 </v>
   <v>       0.99930459       0.54622648       0.61673538 </v>
   <v>       0.58856169       0.06028174       0.36246414 </v>
   <v>       0.57091745       0.99560635       0.43388170 </v>
   <v>       0.47394495       0.41150602       0.36218320 </v>
   <v>       0.42696652       0.42904095       0.43340295 </v>
   <v>       0.93991648       0.52874659       0.36305324 </v>
   <v>       0.00480365       0.57523673       0.43384015 </v>
   <v>       0.44210275       0.85730425       0.59339398 </v>
   <v>       0.50222252       0.12147589       0.59514662 </v>
   <v>       0.56691933       0.21222832       0.55976175 </v>
   <v>       0.41651312       0.55850205       0.59319669 </v>
   <v>       0.62030940       0.50063368       0.59551695 </v>
   <v>       0.64754872       0.43647357       0.56000575 </v>
   <v>       0.14257947       0.58383711       0.59398038 </v>
   <v>       0.88114526       0.37983699       0.59438620 </v>
   <v>       0.79053878       0.35428282       0.55986544 </v>
   <v>       0.61010484       0.14118912       0.43497303 </v>
   <v>       0.40662884       0.88293562       0.39141533 </v>
   <v>       0.36587039       0.79056471       0.43373947 </v>
   <v>       0.53464127       0.39237380       0.43406476 </v>
   <v>       0.47630555       0.59380374       0.39074523 </v>
   <v>       0.42486854       0.63467965       0.43396206 </v>
   <v>       0.86036644       0.46887907       0.43542922 </v>
   <v>       0.11827489       0.52344072       0.39165759 </v>
   <v>       0.20987884       0.57477204       0.43473686 </v>
  </varray>
 </structure>
 <calculation>
  <scstep>
   <time name="dav">  305.36  308.59</time>
   <time name="total">  305.62  308.86</time>
   <energy>
    <i name="alphaZ">     43.82618631 </i>
    <i name="ewald">  47136.77199395 </i>
    <i name="hartreedc"> -61802.94914782 </i>
    <i name="XCdc">   1449.29455160 </i>
    <i name="pawpsdc">  36069.83858301 </i>
    <i name="pawaedc"> -36154.87757800 </i>
    <i name="eentropy">     -0.00000000 </i>
    <i name="bandstr">  -5383.68672589 </i>
    <i name="atom">  17942.10305023 </i>
    <i name="e_fr_energy">   -699.67908661 </i>
    <i name="e_wo_entrp">   -699.67908661 </i>
    <i name="e_0_energy">   -699.67908661 </i>
   </energy>
  </scstep>
  <scstep>
   <time name="dav">  348.30  351.92</time>
   <time name="total">  348.31  351.93</time>
   <energy>
    <i name="e_fr_energy">   -700.21656116 </i>
    <i name="e_wo_entrp">   -700.21656116 </i>
    <i name="e_0_energy">   -700.21656116 </i>
   </energy>
  </scstep>
  <scstep>
   <time name="dav">  383.63  387.68</time>
   <time name="total">  383.65  387.69</time>
   <energy>
    <i name="e_fr_energy">   -700.22926606 </i>
    <i name="e_wo_entrp">   -700.22926606 </i>
    <i name="e_0_energy">   -700.22926606 </i>
   </energy>
  </scstep>
  <scstep>
   <time name="dav">  343.90  347.65</time>
   <time name="total">  343.92  347.67</time>
   <energy>
    <i name="e_fr_energy">   -700.22952745 </i>
    <i name="e_wo_entrp">   -700.22952745 </i>
    <i name="e_0_energy">   -700.22952745 </i>
   </energy>
  </scstep>
  <scstep>
   <time name="dav">  309.48  312.90</time>
   <time name="total">  309.49  312.91</time>
   <energy>
    <i name="e_fr_energy">   -700.22953824 </i>
    <i name="e_wo_entrp">   -700.22953824 </i>
    <i name="e_0_energy">   -700.22953824 </i>
   </energy>
  </scstep>
  <scstep>
   <time name="dav">  256.47  259.14</time>
   <time name="total">  256.48  259.15</time>
   <energy>
    <i name="alphaZ">     43.82618631 </i>
    <i name="ewald">  47136.77199395 </i>
    <i name="hartreedc"> -61802.94914782 </i>
    <i name="XCdc">   1449.29455160 </i>
    <i name="pawpsdc">  36069.83858301 </i>
    <i name="pawaedc"> -36154.87757800 </i>
    <i name="eentropy">     -0.00000000 </i>
    <i name="bandstr">  -5384.23717800 </i>
    <i name="atom">  17942.10305023 </i>
    <i name="e_fr_energy">   -700.22953872 </i>
    <i name="e_wo_entrp">   -700.22953872 </i>
    <i name="e_0_energy">   -700.22953872 </i>
   </energy>
  </scstep>
  <structure>
   <crystal>
    <varray name="basis" >
     <v>      29.18688138       0.07927581       0.00000000 </v>
     <v>     -14.52478630      25.10068165       0.00000000 </v>
     <v>       0.00000000       0.00000000      20.00000000 </v>
    </varray>
    <i name="volume">  14675.24164076 </i>
    <varray name="rec_basis" >
     <v>       0.03420820       0.01979495       0.00000000 </v>
     <v>      -0.00010804       0.03977704       0.00000000 </v>
     <v>       0.00000000       0.00000000       0.05000000 </v>
    </varray>
   </crystal>
   <varray name="positions" >
    <v>       0.30831955       0.69632270       0.51676455 </v>
    <v>       0.38767916       0.69074370       0.51543442 </v>
    <v>       0.30300871       0.61097966       0.51648896 </v>
    <v>       0.22723998       0.61876314       0.52303525 </v>
    <v>       0.38018987       0.60682436       0.52139667 </v>
    <v>       0.39182222       0.77242459       0.52192381 </v>
    <v>       0.70119087       0.31243775       0.49600738 </v>
    <v>       0.61442075       0.30199693       0.49496941 </v>
    <v>       0.69066465       0.38928328       0.49483099 </v>
    <v>       0.77436667       0.39892087       0.49162862 </v>
    <v>       0.60457666       0.37637380       0.49042174 </v>
    <v>       0.62730484       0.22824850       0.49154591 </v>
    <v>       0.49259228       0.05208259       0.55327112 </v>
    <v>       0.50430651       0.96034584       0.62107073 </v>
    <v>       0.56045272       0.50929462       0.55322328 </v>
    <v>       0.45837467       0.49723518       0.62115306 </v>
    <v>       0.94975407       0.43984051       0.55248612 </v>
    <v>       0.03999986       0.54306480       0.62098146 </v>
    <v>       0.45466780       0.95067956       0.44589443 </v>
    <v>       0.57184208       0.03706020       0.41642914 </v>
    <v>       0.49646792       0.54601755       0.44520422 </v>
    <v>       0.46749703       0.42864261       0.41590320 </v>
    <v>       0.05062188       0.50381869       0.44561162 </v>
    <v>       0.96350331       0.53486882       0.41657206 </v>
    <v>       0.28174404       0.64271574       0.51690642 </v>
    <v>       0.36104994       0.71760936       0.51613477 </v>
    <v>       0.35624613       0.63768938       0.51589664 </v>
    <v>       0.71995395       0.36523604       0.49570610 </v>
    <v>       0.64811172       0.28302982       0.49570209 </v>
    <v>       0.63822749       0.35543739       0.49494433 </v>
    <v>       0.55989957       0.13937235       0.51635904 </v>
    <v>       0.51715211       0.10512494       0.55718028 </v>
    <v>       0.50997220       0.03011753       0.50828177 </v>
    <v>       0.47988193       0.97093341       0.50376532 </v>
    <v>       0.47545229       0.93793741       0.55784575 </v>
    <v>       0.44544857       0.88323501       0.55197600 </v>
    <v>       0.58528684       0.19704032       0.52437065 </v>
    <v>       0.58202010       0.44302029       0.51587407 </v>
    <v>       0.58947526       0.48542194       0.55715115 </v>
    <v>       0.52156131       0.49148430       0.50782722 </v>
    <v>       0.49209027       0.52107531       0.50326302 </v>
    <v>       0.46392794       0.52555204       0.55757631 </v>
    <v>       0.43886925       0.55515390       0.55167605 </v>
    <v>       0.61462735       0.41812431       0.52391646 </v>
    <v>       0.86274631       0.42005366       0.51624129 </v>
    <v>       0.89708195       0.41131966       0.55661130 </v>
    <v>       0.97129029       0.47945993       0.50775987 </v>
    <v>       0.03014099       0.50860013       0.50340760 </v>
    <v>       0.06264687       0.53687343       0.55779462 </v>
    <v>       0.11704047       0.56146294       0.55233660 </v>
    <v>       0.80548113       0.38788238       0.52444515 </v>
    <v>       0.55211925       0.06154314       0.46487242 </v>
    <v>       0.57729842       0.11642053       0.46818014 </v>
    <v>       0.42022493       0.86206125       0.49081131 </v>
    <v>       0.42587484       0.89779873       0.43982919 </v>
    <v>       0.38970688       0.80447653       0.47986621 </v>
    <v>       0.51168231       0.44944180       0.46418756 </v>
    <v>       0.54201621       0.42508104       0.46743960 </v>
    <v>       0.44231026       0.58006510       0.49033956 </v>
    <v>       0.47221633       0.57460129       0.43920157 </v>
    <v>       0.41482657       0.61010686       0.47958385 </v>
    <v>       0.93971719       0.49037072       0.46473914 </v>
    <v>       0.88522340       0.46064244       0.46828331 </v>
    <v>       0.13843190       0.55756616       0.49127286 </v>
    <v>       0.10321244       0.52773961       0.43997746 </v>
    <v>       0.19569867       0.58462122       0.48075795 </v>
    <v>       0.48301931       0.93603372       0.67311146 </v>
    <v>       0.54807032       0.00128404       0.61702130 </v>
    <v>       0.45633483       0.51933725       0.67304570 </v>
    <v>       0.45526340       0.45310878       0.61756194 </v>
    <v>       0.06384194       0.54554260       0.67317274 </v>
    <v>       0.99930459       0.54622648       0.61673538 </v>
    <v>       0.58856169       0.06028174       0.36246414 </v>
    <v>       0.57091745       0.99560635       0.43388170 </v>
    <v>       0.47394495       0.41150602       0.36218320 </v>
    <v>       0.42696652       0.42904095       0.43340295 </v>
    <v>       0.93991648       0.52874659       0.36305324 </v>
    <v>       0.00480365       0.57523673       0.43384015 </v>
    <v>       0.44210275       0.85730425       0.59339398 </v>
    <v>       0.50222252       0.12147589       0.59514662 </v>
    <v>       0.56691933       0.21222832       0.55976175 </v>
    <v>       0.41651312       0.55850205       0.59319669 </v>
    <v>       0.62030940       0.50063368       0.59551695 </v>
    <v>       0.64754872       0.43647357       0.56000575 </v>
    <v>       0.14257947       0.58383711       0.59398038 </v>
    <v>       0.88114526       0.37983699       0.59438620 </v>
    <v>       0.79053878       0.35428282       0.55986544 </v>
    <v>       0.61010484       0.14118912       0.43497303 </v>
    <v>       0.40662884       0.88293562       0.39141533 </v>
    <v>       0.36587039       0.79056471       0.43373947 </v>
    <v>       0.53464127       0.39237380       0.43406476 </v>
    <v>       0.47630555       0.59380374       0.39074523 </v>
    <v>       0.42486854       0.63467965       0.43396206 </v>
    <v>       0.86036644       0.46887907       0.43542922 </v>
    <v>       0.11827489       0.52344072       0.39165759 </v>
    <v>       0.20987884       0.57477204       0.43473686 </v>
   </varray>
  </structure>
  <varray name="forces" >
   <v>       0.00103360       0.00200968       0.00110360 </v>
   <v>      -0.00091564       0.00033808       0.00113513 </v>
   <v>       0.00128231      -0.00138152       0.00152200 </v>
   <v>       0.00051481      -0.00268127      -0.00024065 </v>
   <v>       0.00108573      -0.00261442       0.00122435 </v>
   <v>      -0.00146701       0.00060618       0.00145848 </v>
   <v>       0.00006982       0.00237337       0.00034010 </v>
   <v>       0.00665170       0.00654270      -0.00123329 </v>
   <v>       0.00383718       0.00053824      -0.00661263 </v>
   <v>       0.00761926      -0.00128317      -0.00211684 </v>
   <v>      -0.00091986      -0.00389056      -0.00076843 </v>
   <v>       0.00060103       0.00042702       0.00160088 </v>
   <v>      -0.00296708       0.00248743       0.00281503 </v>
   <v>      -0.00025467       0.00237948       0.00490006 </v>
   <v>      -0.00117877      -0.00039357      -0.00144820 </v>
   <v>       0.00425852       0.00276708      -0.00157513 </v>
   <v>      -0.00083014       0.00108440       0.00183882 </v>
   <v>       0.00232173       0.00408960      -0.00479553 </v>
   <v>       0.00089179       0.00130471      -0.00201306 </v>
   <v>       0.00039650      -0.00133016      -0.00451879 </v>
   <v>      -0.00157670       0.00115386      -0.00032563 </v>
   <v>       0.00343579       0.00205047      -0.00355156 </v>
   <v>      -0.00110082       0.00148773       0.00210288 </v>
   <v>       0.00304212       0.00087958      -0.00213955 </v>
   <v>       0.00143627       0.00075127       0.00046668 </v>
   <v>       0.00064386      -0.00142942      -0.00122586 </v>
   <v>      -0.00084907      -0.00281949      -0.00058290 </v>
   <v>      -0.00029202      -0.00205905      -0.00564585 </v>
   <v>      -0.00066648      -0.00228385      -0.00179091 </v>
   <v>      -0.00053477      -0.00090404      -0.00384490 </v>
   <v>      -0.00249369       0.00039146       0.00270097 </v>
   <v>      -0.00048984      -0.00248267       0.00072690 </v>
   <v>      -0.00008934       0.00003597       0.00066112 </v>
   <v>      -0.00194851      -0.00202162       0.00076458 </v>
   <v>       0.00219923      -0.00209769       0.00032791 </v>
   <v>       0.00090259      -0.00229655       0.00138981 </v>
   <v>      -0.00035644       0.00183160       0.00168877 </v>
   <v>      -0.00058359      -0.00176717       0.00142281 </v>
   <v>       0.00071604      -0.00047930      -0.00004991 </v>
   <v>       0.00126415      -0.00049623      -0.00032018 </v>
   <v>       0.00103849      -0.00044713       0.00243729 </v>
   <v>      -0.00122847      -0.00182773      -0.00106792 </v>
   <v>       0.00087033      -0.00072110       0.00127714 </v>
   <v>       0.00108410       0.00056069      -0.00152446 </v>
   <v>      -0.00115297      -0.00183383       0.00088453 </v>
   <v>       0.00120782       0.00105591       0.00212523 </v>
   <v>       0.00214653      -0.00028602      -0.00005757 </v>
   <v>       0.00232378       0.00167136       0.00105493 </v>
   <v>       0.00152750      -0.00012259       0.00227921 </v>
   <v>      -0.00291665      -0.00168703       0.00167035 </v>
   <v>      -0.00517910       0.00102465      -0.00421633 </v>
   <v>       0.00051173       0.00096436       0.00022114 </v>
   <v>      -0.00250413       0.00299327       0.00125937 </v>
   <v>      -0.00113330      -0.00069158      -0.00058197 </v>
   <v>      -0.00422058       0.00193044      -0.00038002 </v>
   <v>      -0.00098124       0.00134185      -0.00040282 </v>
   <v>      -0.00196260       0.00008612       0.00096662 </v>
   <v>       0.00109950      -0.00086606      -0.00057902 </v>
   <v>      -0.00121488      -0.00061363      -0.00019480 </v>
   <v>       0.00188323       0.00004255       0.00226767 </v>
   <v>      -0.00038597       0.00131333       0.00123993 </v>
   <v>       0.00021007       0.00167475       0.00040758 </v>
   <v>      -0.00047667      -0.00093953      -0.00028338 </v>
   <v>      -0.00339008      -0.00067322       0.00357648 </v>
   <v>      -0.00094853      -0.00105949      -0.00173084 </v>
   <v>       0.00025203       0.00046051       0.00250841 </v>
   <v>      -0.00060394      -0.00098974      -0.00184077 </v>
   <v>       0.00095431       0.00012031       0.00166728 </v>
   <v>      -0.00149261      -0.00209854      -0.00046884 </v>
   <v>      -0.00145906      -0.00199537       0.00086904 </v>
   <v>      -0.00528886       0.00182785      -0.00214974 </v>
   <v>       0.00168340      -0.00106479       0.00170217 </v>
   <v>      -0.00104625       0.00619816      -0.00243822 </v>
   <v>       0.00134956      -0.00788905       0.00466639 </v>
   <v>      -0.00254241       0.00013901       0.00183101 </v>
   <v>       0.00296609      -0.00270208      -0.00232049 </v>
   <v>      -0.00098162      -0.00049118      -0.00034038 </v>
   <v>       0.00009074       0.00002424       0.00094176 </v>
   <v>       0.00188996      -0.00134402      -0.00152158 </v>
   <v>      -0.00032024       0.00205760       0.00004827 </v>
   <v>       0.00195809       0.00135586      -0.00078158 </v>
   <v>      -0.00034183      -0.00173287       0.00079028 </v>
   <v>       0.00082854       0.00046009      -0.00042919 </v>
   <v>       0.00133364       0.00099996       0.00105720 </v>
   <v>      -0.00167567       0.00174053       0.00033255 </v>
   <v>      -0.00147119       0.00003448       0.00184332 </v>
   <v>      -0.00236518       0.00323192      -0.00128868 </v>
   <v>      -0.00013041       0.00103912      -0.00068410 </v>
   <v>      -0.00435813      -0.00017890       0.00141739 </v>
   <v>      -0.00346250      -0.00074531       0.00066135 </v>
   <v>       0.00099336      -0.00270010       0.00024443 </v>
   <v>      -0.00139428       0.00123664      -0.00146133 </v>
   <v>       0.00067975       0.00177675       0.00078086 </v>
   <v>      -0.00109074       0.00049401      -0.00178989 </v>
   <v>       0.00163546      -0.00103376      -0.00029292 </v>
   <v>       0.00251248      -0.00193985       0.00040662 </v>
  </varray>
  <varray name="stress" >
   <v>       0.00173325       0.00117290       0.00421609 </v>
   <v>       0.00117291       0.00328578      -0.00547528 </v>
   <v>       0.00421609      -0.00547528      -0.18672864 </v>
  </varray>
  <energy>
   <i name="e_fr_energy">   -702.18246204 </i>
   <i name="e_wo_entrp">   -702.18246204 </i>
   <i name="e_0_energy">     -0.00000000 </i>
  </energy>
  <time name="totalsc"> 2272.77 2298.20</time>
  <eigenvalues>
   <array>
    <dimension dim="1">band</dimension>
    <dimension dim="2">kpoint</dimension>
    <dimension dim="3">spin</dimension>
    <field>eigene</field>
    <field>occ</field>
    <set>
     <set comment="spin 1">
      <set comment="kpoint 1">
       <r>  -31.0508    1.0000 </r>
       <r>  -31.0473    1.0000 </r>
       <r>  -31.0430    1.0000 </r>
       <r>  -31.0410    1.0000 </r>
       <r>  -31.0371    1.0000 </r>
       <r>  -31.0335    1.0000 </r>
       <r>  -26.6927    1.0000 </r>
       <r>  -26.6891    1.0000 </r>
       <r>  -26.6840    1.0000 </r>
       <r>  -26.6790    1.0000 </r>
       <r>  -26.6742    1.0000 </r>
       <r>  -26.6706    1.0000 </r>
       <r>  -26.2318    1.0000 </r>
       <r>  -26.2153    1.0000 </r>
       <r>  -24.9253    1.0000 </r>
       <r>  -24.9206    1.0000 </r>
       <r>  -24.9106    1.0000 </r>
       <r>  -24.5800    1.0000 </r>
       <r>  -24.5771    1.0000 </r>
       <r>  -24.4948    1.0000 </r>
       <r>  -24.4932    1.0000 </r>
       <r>  -24.4154    1.0000 </r>
       <r>  -24.3380    1.0000 </r>
       <r>  -24.3347    1.0000 </r>
       <r>  -23.4220    1.0000 </r>
       <r>  -23.3517    1.0000 </r>
       <r>  -22.2662    1.0000 </r>
       <r>  -22.2593    1.0000 </r>
       <r>  -22.2464    1.0000 </r>
       <r>  -22.2414    1.0000 </r>
       <r>  -21.5264    1.0000 </r>
       <r>  -21.5128    1.0000 </r>
       <r>  -21.5082    1.0000 </r>
       <r>  -21.4484    1.0000 </r>
       <r>  -21.4405    1.0000 </r>
       <r>  -21.4374    1.0000 </r>
       <r>  -20.9460    1.0000 </r>
       <r>  -20.9409    1.0000 </r>
       <r>  -20.9378    1.0000 </r>
       <r>  -20.2828    1.0000 </r>
       <r>  -20.2780    1.0000 </r>
       <r>  -20.2287    1.0000 </r>
       <r>  -18.7198    1.0000 </r>
       <r>  -18.7165    1.0000 </r>
       <r>  -18.5794    1.0000 </r>
       <r>  -18.0647    1.0000 </r>
       <r>  -18.0578    1.0000 </r>
       <r>  -18.0304    1.0000 </r>
       <r>  -18.0259    1.0000 </r>
       <r>  -18.0129    1.0000 </r>
       <r>  -17.8136    1.0000 </r>
       <r>  -17.8120    1.0000 </r>
       <r>  -17.7922    1.0000 </r>
       <r>  -17.0904    1.0000 </r>
       <r>  -16.9939    1.0000 </r>
       <r>  -16.9903    1.0000 </r>
       <r>  -16.3096    1.0000 </r>
       <r>  -16.2958    1.0000 </r>
       <r>  -16.2920    1.0000 </r>
       <r>  -16.2106    1.0000 </r>
       <r>  -15.7160    1.0000 </r>
       <r>  -15.7114    1.0000 </r>
       <r>  -15.5116    1.0000 </r>
       <r>  -15.5065    1.0000 </r>
       <r>  -15.2006    1.0000 </r>
       <r>  -15.1435    1.0000 </r>
       <r>  -14.4819    1.0000 </r>
       <r>  -14.4762    1.0000 </r>
       <r>  -14.4561    1.0000 </r>
       <r>  -14.4523    1.0000 </r>
       <r>  -14.2694    1.0000 </r>
       <r>  -14.2419    1.0000 </r>
       <r>  -14.2083    1.0000 </r>
       <r>  -14.1094    1.0000 </r>
       <r>  -14.1058    1.0000 </r>
       <r>  -14.0889    1.0000 </r>
       <r>  -13.9434    1.0000 </r>
       <r>  -13.8398    1.0000 </r>
       <r>  -13.8367    1.0000 </r>
       <r>  -13.6227    1.0000 </r>
       <r>  -13.5710    1.0000 </r>
       <r>  -13.5671    1.0000 </r>
       <r>  -13.4914    1.0000 </r>
       <r>  -13.4875    1.0000 </r>
       <r>  -13.3876    1.0000 </r>
       <r>  -13.3007    1.0000 </r>
       <r>  -13.2958    1.0000 </r>
       <r>  -13.2456    1.0000 </r>
       <r>  -13.2183    1.0000 </r>
       <r>  -13.1327    1.0000 </r>
       <r>  -13.1256    1.0000 </r>
       <r>  -13.1030    1.0000 </r>
       <r>  -13.1013    1.0000 </r>
       <r>  -12.8844    1.0000 </r>
       <r>  -12.7861    1.0000 </r>
       <r>  -12.5654    1.0000 </r>
       <r>  -12.5614    1.0000 </r>
       <r>  -12.5436    1.0000 </r>
       <r>  -12.5423    1.0000 </r>
       <r>  -12.4977    1.0000 </r>
       <r>  -12.3812    1.0000 </r>
       <r>  -12.3772    1.0000 </r>
       <r>  -12.3517    1.0000 </r>
       <r>  -12.3252    1.0000 </r>
       <r>  -12.0974    1.0000 </r>
       <r>  -12.0266    1.0000 </r>
       <r>  -12.0180    1.0000 </r>
       <r>  -11.9137    1.0000 </r>
       <r>  -11.9123    1.0000 </r>
       <r>  -11.6779    1.0000 </r>
       <r>  -11.6516    1.0000 </r>
       <r>  -11.6435    1.0000 </r>
       <r>  -11.1464    1.0000 </r>
       <r>  -11.1411    1.0000 </r>
       <r>  -11.1281    1.0000 </r>
       <r>  -11.0089    1.0000 </r>
       <r>  -10.9941    1.0000 </r>
       <r>  -10.9873    1.0000 </r>
       <r>  -10.8518    1.0000 </r>
       <r>  -10.7867    1.0000 </r>
       <r>  -10.7819    1.0000 </r>
       <r>  -10.5961    1.0000 </r>
       <r>  -10.5522    1.0000 </r>
       <r>  -10.5454    1.0000 </r>
       <r>  -10.5442    1.0000 </r>
       <r>  -10.5069    1.0000 </r>
       <r>  -10.5034    1.0000 </r>
       <r>  -10.4292    1.0000 </r>
       <r>  -10.0669    1.0000 </r>
       <r>  -10.0629    1.0000 </r>
       <r>   -9.9831    1.0000 </r>
       <r>   -9.8167    1.0000 </r>
       <r>   -9.8097    1.0000 </r>
       <r>   -9.6062    1.0000 </r>
       <r>   -9.6005    1.0000 </r>
       <r>   -9.4082    1.0000 </r>
       <r>   -9.3533    1.0000 </r>
       <r>   -9.2536    1.0000 </r>
       <r>   -9.0644    1.0000 </r>
       <r>   -8.6699    1.0000 </r>
       <r>   -8.6602    1.0000 </r>
       <r>   -8.5544    1.0000 </r>
       <r>   -8.5467    1.0000 </r>
       <r>   -8.2069    1.0000 </r>
       <r>   -8.1899    1.0000 </r>
       <r>   -8.1829    1.0000 </r>
       <r>   -8.1785    1.0000 </r>
       <r>   -8.1665    1.0000 </r>
       <r>   -8.1596    1.0000 </r>
       <r>   -7.8766    1.0000 </r>
       <r>   -7.8711    1.0000 </r>
       <r>   -7.8676    1.0000 </r>
       <r>   -7.8620    1.0000 </r>
       <r>   -7.8566    1.0000 </r>
       <r>   -7.8530    1.0000 </r>
       <r>   -7.7410    1.0000 </r>
       <r>   -7.7328    1.0000 </r>
       <r>   -7.6924    1.0000 </r>
       <r>   -7.5771    1.0000 </r>
       <r>   -7.5430    1.0000 </r>
       <r>   -7.5390    1.0000 </r>
       <r>   -7.3786    1.0000 </r>
       <r>   -7.3673    1.0000 </r>
       <r>   -7.3597    1.0000 </r>
       <r>   -7.1208    1.0000 </r>
       <r>   -7.1120    1.0000 </r>
       <r>   -7.0140    1.0000 </r>
       <r>   -7.0046    1.0000 </r>
       <r>   -7.0012    1.0000 </r>
       <r>   -6.9503    1.0000 </r>
       <r>   -6.9328    1.0000 </r>
       <r>   -6.9054    1.0000 </r>
       <r>   -6.8763    1.0000 </r>
       <r>   -6.8713    1.0000 </r>
       <r>   -6.8618    1.0000 </r>
       <r>   -6.8588    1.0000 </r>
       <r>   -6.8291    1.0000 </r>
       <r>   -6.7995    1.0000 </r>
       <r>   -6.7160    1.0000 </r>
       <r>   -6.7147    1.0000 </r>
       <r>   -6.6420    1.0000 </r>
       <r>   -6.6406    1.0000 </r>
       <r>   -6.5919    1.0000 </r>
       <r>   -6.5907    1.0000 </r>
       <r>   -6.5866    1.0000 </r>
       <r>   -6.4693    1.0000 </r>
       <r>   -6.4652    1.0000 </r>
       <r>   -6.4195    1.0000 </r>
       <r>   -6.4125    1.0000 </r>
       <r>   -3.9500    0.0000 </r>
       <r>   -3.9440    0.0000 </r>
       <r>   -3.8028    0.0000 </r>
       <r>   -3.6522    0.0000 </r>
       <r>   -3.6472    0.0000 </r>
       <r>   -3.6421    0.0000 </r>
       <r>   -3.6363    0.0000 </r>
       <r>   -3.6330    0.0000 </r>
       <r>   -3.5284    0.0000 </r>
       <r>   -3.4840    0.0000 </r>
       <r>   -3.4802    0.0000 </r>
       <r>   -3.1681    0.0000 </r>
       <r>   -2.3779    0.0000 </r>
       <r>   -2.3769    0.0000 </r>
       <r>   -2.2255    0.0000 </r>
       <r>   -2.2221    0.0000 </r>
       <r>   -2.2210    0.0000 </r>
       <r>   -2.1218    0.0000 </r>
       <r>   -1.8729    0.0000 </r>
       <r>   -1.8682    0.0000 </r>
       <r>   -1.6543    0.0000 </r>
       <r>   -1.6448    0.0000 </r>
       <r>   -1.2664    0.0000 </r>
       <r>   -0.9543    0.0000 </r>
       <r>   -0.9378    0.0000 </r>
       <r>   -0.8098    0.0000 </r>
       <r>   -0.5926    0.0000 </r>
       <r>   -0.5805    0.0000 </r>
       <r>   -0.5204    0.0000 </r>
       <r>   -0.4112    0.0000 </r>
       <r>   -0.1979    0.0000 </r>
       <r>   -0.1976    0.0000 </r>
       <r>   -0.0457    0.0000 </r>
       <r>   -0.0446    0.0000 </r>
       <r>    0.0145    0.0000 </r>
       <r>    0.1160    0.0000 </r>
       <r>    0.1759    0.0000 </r>
       <r>    0.1788    0.0000 </r>
       <r>    0.2716    0.0000 </r>
       <r>    0.3976    0.0000 </r>
       <r>    0.3990    0.0000 </r>
       <r>    0.4381    0.0000 </r>
       <r>    0.4448    0.0000 </r>
       <r>    0.4474    0.0000 </r>
       <r>    0.5385    0.0000 </r>
       <r>    0.5459    0.0000 </r>
       <r>    0.5493    0.0000 </r>
       <r>    0.5861    0.0000 </r>
       <r>    0.6071    0.0000 </r>
       <r>    0.6282    0.0000 </r>
       <r>    0.6299    0.0000 </r>
      </set>
      <set comment="kpoint 2">
       <r>  -31.0508    1.0000 </r>
       <r>  -31.0473    1.0000 </r>
       <r>  -31.0430    1.0000 </r>
       <r>  -31.0410    1.0000 </r>
       <r>  -31.0371    1.0000 </r>
       <r>  -31.0335    1.0000 </r>
       <r>  -26.6927    1.0000 </r>
       <r>  -26.6891    1.0000 </r>
       <r>  -26.6840    1.0000 </r>
       <r>  -26.6790    1.0000 </r>
       <r>  -26.6742    1.0000 </r>
       <r>  -26.6706    1.0000 </r>
       <r>  -26.2318    1.0000 </r>
       <r>  -26.2153    1.0000 </r>
       <r>  -24.9253    1.0000 </r>
       <r>  -24.9206    1.0000 </r>
       <r>  -24.9107    1.0000 </r>
       <r>  -24.5800    1.0000 </r>
       <r>  -24.5770    1.0000 </r>
       <r>  -24.4948    1.0000 </r>
       <r>  -24.4934    1.0000 </r>
       <r>  -24.4152    1.0000 </r>
       <r>  -24.3381    1.0000 </r>
       <r>  -24.3348    1.0000 </r>
       <r>  -23.4220    1.0000 </r>
       <r>  -23.3517    1.0000 </r>
       <r>  -22.2662    1.0000 </r>
       <r>  -22.2593    1.0000 </r>
       <r>  -22.2464    1.0000 </r>
       <r>  -22.2414    1.0000 </r>
       <r>  -21.5264    1.0000 </r>
       <r>  -21.5128    1.0000 </r>
       <r>  -21.5082    1.0000 </r>
       <r>  -21.4484    1.0000 </r>
       <r>  -21.4405    1.0000 </r>
       <r>  -21.4374    1.0000 </r>
       <r>  -20.9460    1.0000 </r>
       <r>  -20.9409    1.0000 </r>
       <r>  -20.9378    1.0000 </r>
       <r>  -20.2827    1.0000 </r>
       <r>  -20.2780    1.0000 </r>
       <r>  -20.2288    1.0000 </r>
       <r>  -18.7198    1.0000 </r>
       <r>  -18.7163    1.0000 </r>
       <r>  -18.5796    1.0000 </r>
       <r>  -18.0647    1.0000 </r>
       <r>  -18.0578    1.0000 </r>
       <r>  -18.0304    1.0000 </r>
       <r>  -18.0260    1.0000 </r>
       <r>  -18.0127    1.0000 </r>
       <r>  -17.8179    1.0000 </r>
       <r>  -17.8134    1.0000 </r>
       <r>  -17.7861    1.0000 </r>
       <r>  -17.0951    1.0000 </r>
       <r>  -16.9935    1.0000 </r>
       <r>  -16.9860    1.0000 </r>
       <r>  -16.3137    1.0000 </r>
       <r>  -16.2957    1.0000 </r>
       <r>  -16.2887    1.0000 </r>
       <r>  -16.2106    1.0000 </r>
       <r>  -15.7160    1.0000 </r>
       <r>  -15.7109    1.0000 </r>
       <r>  -15.5117    1.0000 </r>
       <r>  -15.5067    1.0000 </r>
       <r>  -15.2005    1.0000 </r>
       <r>  -15.1437    1.0000 </r>
       <r>  -14.4819    1.0000 </r>
       <r>  -14.4762    1.0000 </r>
       <r>  -14.4561    1.0000 </r>
       <r>  -14.4523    1.0000 </r>
       <r>  -14.2694    1.0000 </r>
       <r>  -14.2418    1.0000 </r>
       <r>  -14.2084    1.0000 </r>
       <r>  -14.1094    1.0000 </r>
       <r>  -14.1057    1.0000 </r>
       <r>  -14.0891    1.0000 </r>
       <r>  -13.9440    1.0000 </r>
       <r>  -13.8397    1.0000 </r>
       <r>  -13.8362    1.0000 </r>
       <r>  -13.6232    1.0000 </r>
       <r>  -13.5708    1.0000 </r>
       <r>  -13.5668    1.0000 </r>
       <r>  -13.4914    1.0000 </r>
       <r>  -13.4876    1.0000 </r>
       <r>  -13.3875    1.0000 </r>
       <r>  -13.3008    1.0000 </r>
       <r>  -13.2959    1.0000 </r>
       <r>  -13.2456    1.0000 </r>
       <r>  -13.2183    1.0000 </r>
       <r>  -13.1327    1.0000 </r>
       <r>  -13.1255    1.0000 </r>
       <r>  -13.1030    1.0000 </r>
       <r>  -13.1013    1.0000 </r>
       <r>  -12.8843    1.0000 </r>
       <r>  -12.7862    1.0000 </r>
       <r>  -12.5654    1.0000 </r>
       <r>  -12.5614    1.0000 </r>
       <r>  -12.5436    1.0000 </r>
       <r>  -12.5423    1.0000 </r>
       <r>  -12.4976    1.0000 </r>
       <r>  -12.3812    1.0000 </r>
       <r>  -12.3779    1.0000 </r>
       <r>  -12.3510    1.0000 </r>
       <r>  -12.3251    1.0000 </r>
       <r>  -12.0972    1.0000 </r>
       <r>  -12.0266    1.0000 </r>
       <r>  -12.0179    1.0000 </r>
       <r>  -11.9138    1.0000 </r>
       <r>  -11.9123    1.0000 </r>
       <r>  -11.6836    1.0000 </r>
       <r>  -11.6511    1.0000 </r>
       <r>  -11.6381    1.0000 </r>
       <r>  -11.1464    1.0000 </r>
       <r>  -11.1411    1.0000 </r>
       <r>  -11.1282    1.0000 </r>
       <r>  -11.0158    1.0000 </r>
       <r>  -10.9935    1.0000 </r>
       <r>  -10.9813    1.0000 </r>
       <r>  -10.8518    1.0000 </r>
       <r>  -10.7866    1.0000 </r>
       <r>  -10.7818    1.0000 </r>
       <r>  -10.5963    1.0000 </r>
       <r>  -10.5522    1.0000 </r>
       <r>  -10.5453    1.0000 </r>
       <r>  -10.5441    1.0000 </r>
       <r>  -10.5069    1.0000 </r>
       <r>  -10.5034    1.0000 </r>
       <r>  -10.4294    1.0000 </r>
       <r>  -10.0669    1.0000 </r>
       <r>  -10.0628    1.0000 </r>
       <r>   -9.9832    1.0000 </r>
       <r>   -9.8166    1.0000 </r>
       <r>   -9.8096    1.0000 </r>
       <r>   -9.6064    1.0000 </r>
       <r>   -9.6006    1.0000 </r>
       <r>   -9.4081    1.0000 </r>
       <r>   -9.3533    1.0000 </r>
       <r>   -9.2533    1.0000 </r>
       <r>   -9.0647    1.0000 </r>
       <r>   -8.6699    1.0000 </r>
       <r>   -8.6601    1.0000 </r>
       <r>   -8.5544    1.0000 </r>
       <r>   -8.5468    1.0000 </r>
       <r>   -8.2068    1.0000 </r>
       <r>   -8.1899    1.0000 </r>
       <r>   -8.1829    1.0000 </r>
       <r>   -8.1785    1.0000 </r>
       <r>   -8.1665    1.0000 </r>
       <r>   -8.1596    1.0000 </r>
       <r>   -7.8766    1.0000 </r>
       <r>   -7.8711    1.0000 </r>
       <r>   -7.8676    1.0000 </r>
       <r>   -7.8620    1.0000 </r>
       <r>   -7.8566    1.0000 </r>
       <r>   -7.8530    1.0000 </r>
       <r>   -7.7410    1.0000 </r>
       <r>   -7.7328    1.0000 </r>
       <r>   -7.6925    1.0000 </r>
       <r>   -7.5771    1.0000 </r>
       <r>   -7.5430    1.0000 </r>
       <r>   -7.5391    1.0000 </r>
       <r>   -7.3786    1.0000 </r>
       <r>   -7.3673    1.0000 </r>
       <r>   -7.3596    1.0000 </r>
       <r>   -7.1207    1.0000 </r>
       <r>   -7.1118    1.0000 </r>
       <r>   -7.0140    1.0000 </r>
       <r>   -7.0046    1.0000 </r>
       <r>   -7.0012    1.0000 </r>
       <r>   -6.9505    1.0000 </r>
       <r>   -6.9329    1.0000 </r>
       <r>   -6.9054    1.0000 </r>
       <r>   -6.8763    1.0000 </r>
       <r>   -6.8711    1.0000 </r>
       <r>   -6.8618    1.0000 </r>
       <r>   -6.8587    1.0000 </r>
       <r>   -6.8291    1.0000 </r>
       <r>   -6.7997    1.0000 </r>
       <r>   -6.7160    1.0000 </r>
       <r>   -6.7145    1.0000 </r>
       <r>   -6.6421    1.0000 </r>
       <r>   -6.6405    1.0000 </r>
       <r>   -6.5920    1.0000 </r>
       <r>   -6.5907    1.0000 </r>
       <r>   -6.5866    1.0000 </r>
       <r>   -6.4693    1.0000 </r>
       <r>   -6.4652    1.0000 </r>
       <r>   -6.4195    1.0000 </r>
       <r>   -6.4125    1.0000 </r>
       <r>   -3.9500    0.0000 </r>
       <r>   -3.9438    0.0000 </r>
       <r>   -3.8031    0.0000 </r>
       <r>   -3.6522    0.0000 </r>
       <r>   -3.6472    0.0000 </r>
       <r>   -3.6421    0.0000 </r>
       <r>   -3.6363    0.0000 </r>
       <r>   -3.6330    0.0000 </r>
       <r>   -3.5299    0.0000 </r>
       <r>   -3.4822    0.0000 </r>
       <r>   -3.4801    0.0000 </r>
       <r>   -3.1684    0.0000 </r>
       <r>   -2.3778    0.0000 </r>
       <r>   -2.3767    0.0000 </r>
       <r>   -2.2268    0.0000 </r>
       <r>   -2.2240    0.0000 </r>
       <r>   -2.2179    0.0000 </r>
       <r>   -2.1219    0.0000 </r>
       <r>   -1.8729    0.0000 </r>
       <r>   -1.8680    0.0000 </r>
       <r>   -1.6543    0.0000 </r>
       <r>   -1.6451    0.0000 </r>
       <r>   -1.2659    0.0000 </r>
       <r>   -0.9543    0.0000 </r>
       <r>   -0.9385    0.0000 </r>
       <r>   -0.8092    0.0000 </r>
       <r>   -0.5926    0.0000 </r>
       <r>   -0.5806    0.0000 </r>
       <r>   -0.5203    0.0000 </r>
       <r>   -0.4113    0.0000 </r>
       <r>   -0.1978    0.0000 </r>
       <r>   -0.1974    0.0000 </r>
       <r>   -0.0461    0.0000 </r>
       <r>   -0.0447    0.0000 </r>
       <r>    0.0151    0.0000 </r>
       <r>    0.1161    0.0000 </r>
       <r>    0.1759    0.0000 </r>
       <r>    0.1788    0.0000 </r>
       <r>    0.2712    0.0000 </r>
       <r>    0.3969    0.0000 </r>
       <r>    0.3991    0.0000 </r>
       <r>    0.4368    0.0000 </r>
       <r>    0.4446    0.0000 </r>
       <r>    0.4492    0.0000 </r>
       <r>    0.5370    0.0000 </r>
       <r>    0.5471    0.0000 </r>
       <r>    0.5498    0.0000 </r>
       <r>    0.5867    0.0000 </r>
       <r>    0.6072    0.0000 </r>
       <r>    0.6283    0.0000 </r>
       <r>    0.6300    0.0000 </r>
      </set>
      <set comment="kpoint 3">
       <r>  -31.0508    1.0000 </r>
       <r>  -31.0473    1.0000 </r>
       <r>  -31.0430    1.0000 </r>
       <r>  -31.0410    1.0000 </r>
       <r>  -31.0371    1.0000 </r>
       <r>  -31.0335    1.0000 </r>
       <r>  -26.6927    1.0000 </r>
       <r>  -26.6891    1.0000 </r>
       <r>  -26.6840    1.0000 </r>
       <r>  -26.6790    1.0000 </r>
       <r>  -26.6742    1.0000 </r>
       <r>  -26.6706    1.0000 </r>
       <r>  -26.2318    1.0000 </r>
       <r>  -26.2153    1.0000 </r>
       <r>  -24.9253    1.0000 </r>
       <r>  -24.9206    1.0000 </r>
       <r>  -24.9107    1.0000 </r>
       <r>  -24.5800    1.0000 </r>
       <r>  -24.5769    1.0000 </r>
       <r>  -24.4948    1.0000 </r>
       <r>  -24.4939    1.0000 </r>
       <r>  -24.4145    1.0000 </r>
       <r>  -24.3381    1.0000 </r>
       <r>  -24.3350    1.0000 </r>
       <r>  -23.4220    1.0000 </r>
       <r>  -23.3517    1.0000 </r>
       <r>  -22.2662    1.0000 </r>
       <r>  -22.2593    1.0000 </r>
       <r>  -22.2464    1.0000 </r>
       <r>  -22.2415    1.0000 </r>
       <r>  -21.5264    1.0000 </r>
       <r>  -21.5128    1.0000 </r>
       <r>  -21.5083    1.0000 </r>
       <r>  -21.4484    1.0000 </r>
       <r>  -21.4405    1.0000 </r>
       <r>  -21.4374    1.0000 </r>
       <r>  -20.9460    1.0000 </r>
       <r>  -20.9409    1.0000 </r>
       <r>  -20.9378    1.0000 </r>
       <r>  -20.2827    1.0000 </r>
       <r>  -20.2778    1.0000 </r>
       <r>  -20.2290    1.0000 </r>
       <r>  -18.7198    1.0000 </r>
       <r>  -18.7158    1.0000 </r>
       <r>  -18.5803    1.0000 </r>
       <r>  -18.0647    1.0000 </r>
       <r>  -18.0577    1.0000 </r>
       <r>  -18.0304    1.0000 </r>
       <r>  -18.0263    1.0000 </r>
       <r>  -18.0121    1.0000 </r>
       <r>  -17.8279    1.0000 </r>
       <r>  -17.8134    1.0000 </r>
       <r>  -17.7747    1.0000 </r>
       <r>  -17.1073    1.0000 </r>
       <r>  -16.9933    1.0000 </r>
       <r>  -16.9740    1.0000 </r>
       <r>  -16.3222    1.0000 </r>
       <r>  -16.2956    1.0000 </r>
       <r>  -16.2824    1.0000 </r>
       <r>  -16.2106    1.0000 </r>
       <r>  -15.7160    1.0000 </r>
       <r>  -15.7096    1.0000 </r>
       <r>  -15.5120    1.0000 </r>
       <r>  -15.5070    1.0000 </r>
       <r>  -15.2003    1.0000 </r>
       <r>  -15.1440    1.0000 </r>
       <r>  -14.4819    1.0000 </r>
       <r>  -14.4762    1.0000 </r>
       <r>  -14.4562    1.0000 </r>
       <r>  -14.4523    1.0000 </r>
       <r>  -14.2691    1.0000 </r>
       <r>  -14.2415    1.0000 </r>
       <r>  -14.2085    1.0000 </r>
       <r>  -14.1094    1.0000 </r>
       <r>  -14.1051    1.0000 </r>
       <r>  -14.0896    1.0000 </r>
       <r>  -13.9455    1.0000 </r>
       <r>  -13.8397    1.0000 </r>
       <r>  -13.8346    1.0000 </r>
       <r>  -13.6247    1.0000 </r>
       <r>  -13.5705    1.0000 </r>
       <r>  -13.5658    1.0000 </r>
       <r>  -13.4916    1.0000 </r>
       <r>  -13.4878    1.0000 </r>
       <r>  -13.3872    1.0000 </r>
       <r>  -13.3009    1.0000 </r>
       <r>  -13.2964    1.0000 </r>
       <r>  -13.2455    1.0000 </r>
       <r>  -13.2183    1.0000 </r>
       <r>  -13.1326    1.0000 </r>
       <r>  -13.1254    1.0000 </r>
       <r>  -13.1030    1.0000 </r>
       <r>  -13.1014    1.0000 </r>
       <r>  -12.8839    1.0000 </r>
       <r>  -12.7865    1.0000 </r>
       <r>  -12.5654    1.0000 </r>
       <r>  -12.5613    1.0000 </r>
       <r>  -12.5438    1.0000 </r>
       <r>  -12.5423    1.0000 </r>
       <r>  -12.4974    1.0000 </r>
       <r>  -12.3816    1.0000 </r>
       <r>  -12.3796    1.0000 </r>
       <r>  -12.3494    1.0000 </r>
       <r>  -12.3249    1.0000 </r>
       <r>  -12.0964    1.0000 </r>
       <r>  -12.0264    1.0000 </r>
       <r>  -12.0176    1.0000 </r>
       <r>  -11.9141    1.0000 </r>
       <r>  -11.9126    1.0000 </r>
       <r>  -11.6951    1.0000 </r>
       <r>  -11.6508    1.0000 </r>
       <r>  -11.6262    1.0000 </r>
       <r>  -11.1464    1.0000 </r>
[...]
       <r>   -29.0293     0.0000    12.0000 </r>
       <r>   -28.9129     0.0000    12.0000 </r>
       <r>   -28.7965     0.0000    12.0000 </r>
       <r>   -28.6801     0.0000    12.0000 </r>
       <r>   -28.5637     0.0000    12.0000 </r>
       <r>   -28.4472     0.0000    12.0000 </r>
       <r>   -28.3308     0.0000    12.0000 </r>
       <r>   -28.2144     0.0000    12.0000 </r>
       <r>   -28.0980     0.0000    12.0000 </r>
       <r>   -27.9816     0.0000    12.0000 </r>
       <r>   -27.8651     0.0000    12.0000 </r>
       <r>   -27.7487     0.0000    12.0000 </r>
       <r>   -27.6323     0.0000    12.0000 </r>
       <r>   -27.5159     0.0000    12.0000 </r>
       <r>   -27.3995     0.0000    12.0000 </r>
       <r>   -27.2830     0.0000    12.0000 </r>
       <r>   -27.1666     0.0000    12.0000 </r>
       <r>   -27.0502     0.0000    12.0000 </r>
       <r>   -26.9338     0.0000    12.0000 </r>
       <r>   -26.8174     0.0000    12.0000 </r>
       <r>   -26.7009     3.0788    12.3584 </r>
       <r>   -26.5845     0.0000    24.0000 </r>
       <r>   -26.4681     0.0000    24.0000 </r>
       <r>   -26.3517     0.0000    24.0000 </r>
       <r>   -26.2353     5.4324    24.6324 </r>
       <r>   -26.1188     0.0000    28.0000 </r>
       <r>   -26.0024     0.0000    28.0000 </r>
       <r>   -25.8860     0.0000    28.0000 </r>
       <r>   -25.7696     0.0000    28.0000 </r>
       <r>   -25.6532     0.0000    28.0000 </r>
       <r>   -25.5367     0.0000    28.0000 </r>
       <r>   -25.4203     0.0000    28.0000 </r>
       <r>   -25.3039     0.0000    28.0000 </r>
       <r>   -25.1875     0.0000    28.0000 </r>
       <r>   -25.0711     0.0000    28.0000 </r>
       <r>   -24.9546     0.0002    28.0000 </r>
       <r>   -24.8382    23.1919    34.0000 </r>
       <r>   -24.7218     0.0000    34.0000 </r>
       <r>   -24.6054     0.0020    34.0002 </r>
       <r>   -24.4890    39.9351    41.4826 </r>
       <r>   -24.3725    15.3467    43.7867 </r>
       <r>   -24.2561     6.0127    48.0000 </r>
       <r>   -24.1397     0.0000    48.0000 </r>
       <r>   -24.0233     0.0000    48.0000 </r>
       <r>   -23.9069     0.0000    48.0000 </r>
       <r>   -23.7904     0.0000    48.0000 </r>
       <r>   -23.6740     0.0000    48.0000 </r>
       <r>   -23.5576     0.0000    48.0000 </r>
       <r>   -23.4412     0.0348    48.0041 </r>
       <r>   -23.3248    17.1786    51.9999 </r>
       <r>   -23.2083     0.0000    52.0000 </r>
       <r>   -23.0919     0.0000    52.0000 </r>
       <r>   -22.9755     0.0000    52.0000 </r>
       <r>   -22.8591     0.0000    52.0000 </r>
       <r>   -22.7427     0.0000    52.0000 </r>
       <r>   -22.6262     0.0000    52.0000 </r>
       <r>   -22.5098     0.0000    52.0000 </r>
       <r>   -22.3934     0.0000    52.0000 </r>
       <r>   -22.2770     1.0257    52.1194 </r>
       <r>   -22.1606     0.0000    60.0000 </r>
       <r>   -22.0441     0.0000    60.0000 </r>
       <r>   -21.9277     0.0000    60.0000 </r>
       <r>   -21.8113     0.0000    60.0000 </r>
       <r>   -21.6949     0.0000    60.0000 </r>
       <r>   -21.5785     0.0000    60.0000 </r>
       <r>   -21.4620    51.9206    66.0446 </r>
       <r>   -21.3456     0.0000    72.0000 </r>
       <r>   -21.2292     0.0000    72.0000 </r>
       <r>   -21.1128     0.0000    72.0000 </r>
       <r>   -20.9964     0.0000    72.0000 </r>
       <r>   -20.8799    51.5376    78.0000 </r>
       <r>   -20.7635     0.0000    78.0000 </r>
       <r>   -20.6471     0.0000    78.0000 </r>
       <r>   -20.5307     0.0000    78.0000 </r>
       <r>   -20.4143     0.0000    78.0000 </r>
       <r>   -20.2978     0.1890    78.0220 </r>
       <r>   -20.1814    22.0466    84.0000 </r>
       <r>   -20.0650     0.0000    84.0000 </r>
       <r>   -19.9486     0.0000    84.0000 </r>
       <r>   -19.8322     0.0000    84.0000 </r>
       <r>   -19.7157     0.0000    84.0000 </r>
       <r>   -19.5993     0.0000    84.0000 </r>
       <r>   -19.4829     0.0000    84.0000 </r>
       <r>   -19.3665     0.0000    84.0000 </r>
       <r>   -19.2501     0.0000    84.0000 </r>
       <r>   -19.1336     0.0000    84.0000 </r>
       <r>   -19.0172     0.0000    84.0000 </r>
       <r>   -18.9008     0.0000    84.0000 </r>
       <r>   -18.7844     0.0000    84.0000 </r>
       <r>   -18.6680    29.6566    87.4526 </r>
       <r>   -18.5515    12.0254    90.0000 </r>
       <r>   -18.4351     0.0000    90.0000 </r>
       <r>   -18.3187     0.0000    90.0000 </r>
       <r>   -18.2023     0.0000    90.0000 </r>
       <r>   -18.0859     0.0226    90.0026 </r>
       <r>   -17.9694    50.5085    99.8802 </r>
       <r>   -17.8530     5.6459   101.6906 </r>
       <r>   -17.7366    20.6255   104.3345 </r>
       <r>   -17.6202     2.6525   104.8088 </r>
       <r>   -17.5038     6.7761   105.7555 </r>
       <r>   -17.3873     6.1179   106.7789 </r>
       <r>   -17.2709     2.1564   107.3177 </r>
       <r>   -17.1545     2.1078   107.6787 </r>
       <r>   -17.0381     1.7179   108.0000 </r>
       <r>   -16.9217    20.1108   110.3413 </r>
       <r>   -16.8052     2.2799   110.6988 </r>
       <r>   -16.6888     4.1262   111.2804 </r>
       <r>   -16.5724     4.9916   112.2478 </r>
       <r>   -16.4560     5.2107   113.2066 </r>
       <r>   -16.3396     3.2129   113.7407 </r>
       <r>   -16.2231    32.8785   117.8277 </r>
       <r>   -16.1067     0.0000   120.0000 </r>
       <r>   -15.9903     0.0000   120.0000 </r>
       <r>   -15.8739     0.0000   120.0000 </r>
       <r>   -15.7575     0.0000   120.0000 </r>
       <r>   -15.6410    25.4714   122.9654 </r>
       <r>   -15.5246    14.7109   125.5126 </r>
       <r>   -15.4082     0.0000   128.0000 </r>
       <r>   -15.2918     0.0000   128.0000 </r>
       <r>   -15.1754    17.4757   130.0345 </r>
       <r>   -15.0589     0.0000   132.0000 </r>
       <r>   -14.9425     0.0000   132.0000 </r>
       <r>   -14.8261     0.0000   132.0000 </r>
       <r>   -14.7097     0.0000   132.0000 </r>
       <r>   -14.5933     0.0000   132.0000 </r>
       <r>   -14.4768    20.1006   134.3401 </r>
       <r>   -14.3604     0.0000   140.0000 </r>
       <r>   -14.2440    21.0429   142.4498 </r>
       <r>   -14.1276    21.8036   147.1050 </r>
       <r>   -14.0112    19.9608   152.5905 </r>
       <r>   -13.8947     5.4401   154.0000 </r>
       <r>   -13.7783    24.4150   156.8424 </r>
       <r>   -13.6619    13.8569   159.2799 </r>
       <r>   -13.5455    23.6990   162.5590 </r>
       <r>   -13.4291    34.3584   168.0000 </r>
       <r>   -13.3127    29.5220   171.4369 </r>
       <r>   -13.1962    34.3498   177.9990 </r>
       <r>   -13.0798    68.7042   185.9985 </r>
       <r>   -12.9634     0.0000   186.0000 </r>
       <r>   -12.8470    16.5589   187.9278 </r>
       <r>   -12.7306    14.8886   190.0000 </r>
       <r>   -12.6141     0.0000   190.0000 </r>
       <r>   -12.4977    71.2764   198.2980 </r>
       <r>   -12.3813    25.0618   202.9177 </r>
       <r>   -12.2649    32.0678   208.0000 </r>
       <r>   -12.1485     0.0000   208.0000 </r>
       <r>   -12.0320    17.4735   210.0343 </r>
       <r>   -11.9156    32.6001   217.2286 </r>
       <r>   -11.7992    11.2778   219.3130 </r>
       <r>   -11.6828     3.6226   219.9217 </r>
       <r>   -11.5664     6.4186   222.4139 </r>
       <r>   -11.4499     2.8856   222.9026 </r>
       <r>   -11.3335     6.5854   224.0000 </r>
       <r>   -11.2171     9.1624   225.0667 </r>
       <r>   -11.1007    53.5984   231.5066 </r>
       <r>   -10.9843    18.3422   233.8354 </r>
       <r>   -10.8678     8.2375   235.2257 </r>
       <r>   -10.7514    23.5417   240.7407 </r>
       <r>   -10.6350    15.5176   243.0399 </r>
       <r>   -10.5186    55.3511   250.1773 </r>
       <r>   -10.4022    17.1791   256.0000 </r>
       <r>   -10.2857     0.0000   256.0000 </r>
       <r>   -10.1693     0.0000   256.0000 </r>
       <r>   -10.0529    21.1274   258.4596 </r>
       <r>    -9.9365    17.1792   262.0000 </r>
       <r>    -9.8201     3.3192   262.3864 </r>
       <r>    -9.7036     0.0000   266.0000 </r>
       <r>    -9.5872    34.1239   269.9727 </r>
       <r>    -9.4708     0.0000   270.0000 </r>
       <r>    -9.3544    22.0084   272.5622 </r>
       <r>    -9.2380     4.6532   274.5417 </r>
       <r>    -9.1215    15.4875   276.9364 </r>
       <r>    -9.0051     4.8674   278.0000 </r>
       <r>    -8.8887     0.0000   278.0000 </r>
       <r>    -8.7723     0.0000   278.0000 </r>
       <r>    -8.6559    19.6983   280.2933 </r>
       <r>    -8.5394    33.0849   285.8517 </r>
       <r>    -8.4230     0.0000   286.0000 </r>
       <r>    -8.3066     0.0000   286.0000 </r>
       <r>    -8.1902    30.9669   289.6052 </r>
       <r>    -8.0738     0.0000   298.0000 </r>
       <r>    -7.9573     0.0000   298.0000 </r>
       <r>    -7.8409   102.0550   309.8812 </r>
       <r>    -7.7245    30.8257   313.5887 </r>
       <r>    -7.6081     0.0000   316.0000 </r>
       <r>    -7.4917    44.9522   322.0000 </r>
       <r>    -7.3752    16.2270   323.8891 </r>
       <r>    -7.2588     0.0000   328.0000 </r>
       <r>    -7.1424     0.0087   328.0010 </r>
       <r>    -7.0260    18.1018   332.5074 </r>
       <r>    -6.9096    33.9806   343.0894 </r>
       <r>    -6.7931    88.8081   355.9390 </r>
       <r>    -6.6767    32.7791   359.8161 </r>
       <r>    -6.5603    66.9981   369.9999 </r>
       <r>    -6.4439    34.3276   373.9964 </r>
       <r>    -6.3275     0.0000   378.0000 </r>
       <r>    -6.2110     0.0000   378.0000 </r>
       <r>    -6.0946     0.0000   378.0000 </r>
       <r>    -5.9782     0.0000   378.0000 </r>
       <r>    -5.8618     0.0000   378.0000 </r>
       <r>    -5.7454     0.0000   378.0000 </r>
       <r>    -5.6289     0.0000   378.0000 </r>
       <r>    -5.5125     0.0000   378.0000 </r>
       <r>    -5.3961     0.0000   378.0000 </r>
       <r>    -5.2797     0.0000   378.0000 </r>
       <r>    -5.1633     0.0000   378.0000 </r>
       <r>    -5.0468     0.0000   378.0000 </r>
       <r>    -4.9304     0.0000   378.0000 </r>
       <r>    -4.8140     0.0000   378.0000 </r>
       <r>    -4.6976     0.0000   378.0000 </r>
       <r>    -4.5812     0.0000   378.0000 </r>
       <r>    -4.4647     0.0000   378.0000 </r>
       <r>    -4.3483     0.0000   378.0000 </r>
       <r>    -4.2319     0.0000   378.0000 </r>
       <r>    -4.1155     0.0000   378.0000 </r>
       <r>    -3.9991     0.0000   378.0000 </r>
       <r>    -3.8826    34.3567   381.9998 </r>
       <r>    -3.7662     8.8759   384.0000 </r>
       <r>    -3.6498    19.8848   386.3150 </r>
       <r>    -3.5334    15.9695   395.8592 </r>
       <r>    -3.4170    22.1086   398.5739 </r>
       <r>    -3.3005     9.2197   399.8734 </r>
       <r>    -3.1841    10.1914   401.5532 </r>
       <r>    -3.0677     0.0000   402.0000 </r>
       <r>    -2.9513     0.0000   402.0000 </r>
       <r>    -2.8349     0.0000   402.0000 </r>
       <r>    -2.7184     0.0000   402.0000 </r>
       <r>    -2.6020     0.0000   402.0000 </r>
       <r>    -2.4856     0.0000   402.0000 </r>
       <r>    -2.3692    18.7733   404.1856 </r>
       <r>    -2.2528    12.7820   407.4881 </r>
       <r>    -2.1363    26.1668   413.1797 </r>
       <r>    -2.0199     0.0000   414.0000 </r>
       <r>    -1.9035     0.0001   414.0000 </r>
       <r>    -1.7871    15.4613   418.0000 </r>
       <r>    -1.6707    12.9770   419.5108 </r>
       <r>    -1.5542     0.0000   422.0000 </r>
       <r>    -1.4378     0.0000   422.0000 </r>
       <r>    -1.3214     0.0000   422.0000 </r>
       <r>    -1.2050     7.2584   422.8450 </r>
       <r>    -1.0886     2.5772   424.0000 </r>
       <r>    -0.9721     9.6306   425.5545 </r>
       <r>    -0.8557     0.0000   428.0000 </r>
       <r>    -0.7393    16.4613   429.9164 </r>
       <r>    -0.6229     0.2775   430.0323 </r>
       <r>    -0.5065    20.8202   435.3906 </r>
       <r>    -0.3900    17.1757   437.9996 </r>
       <r>    -0.2736     0.0000   438.0000 </r>
       <r>    -0.1572    27.1006   441.1551 </r>
       <r>    -0.0408    24.5199   445.1879 </r>
       <r>     0.0756    12.4827   447.4532 </r>
       <r>     0.1921    50.1876   453.8428 </r>
       <r>     0.3085     6.8717   456.0000 </r>
       <r>     0.4249    46.9429   461.6318 </r>
       <r>     0.5413    30.3498   467.8000 </r>
       <r>     0.6577    63.8946   478.6719 </r>
       <r>     0.7742     2.5769   480.0000 </r>
       <r>     0.8906     0.0000   480.0000 </r>
       <r>     1.0070     0.0000   480.0000 </r>
       <r>     1.1234     0.0000   480.0000 </r>
       <r>     1.2398     0.0000   480.0000 </r>
       <r>     1.3563     0.0000   480.0000 </r>
       <r>     1.4727     0.0000   480.0000 </r>
       <r>     1.5891     0.0000   480.0000 </r>
       <r>     1.7055     0.0000   480.0000 </r>
       <r>     1.8219     0.0000   480.0000 </r>
       <r>     1.9384     0.0000   480.0000 </r>
       <r>     2.0548     0.0000   480.0000 </r>
       <r>     2.1712     0.0000   480.0000 </r>
       <r>     2.2876     0.0000   480.0000 </r>
      </set>
     </set>
    </array>
   </total>
  </dos>
 </calculation>
 <structure name="finalpos" >
  <crystal>
   <varray name="basis" >
    <v>      29.18688138       0.07927581       0.00000000 </v>
    <v>     -14.52478630      25.10068165       0.00000000 </v>
    <v>       0.00000000       0.00000000      20.00000000 </v>
   </varray>
   <i name="volume">  14675.24164076 </i>
   <varray name="rec_basis" >
    <v>       0.03420820       0.01979495       0.00000000 </v>
    <v>      -0.00010804       0.03977704       0.00000000 </v>
    <v>       0.00000000       0.00000000       0.05000000 </v>
   </varray>
  </crystal>
  <varray name="positions" >
   <v>       0.30831955       0.69632270       0.51676455 </v>
   <v>       0.38767916       0.69074370       0.51543442 </v>
   <v>       0.30300871       0.61097966       0.51648896 </v>
   <v>       0.22723998       0.61876314       0.52303525 </v>
   <v>       0.38018987       0.60682436       0.52139667 </v>
   <v>       0.39182222       0.77242459       0.52192381 </v>
   <v>       0.70119087       0.31243775       0.49600738 </v>
   <v>       0.61442075       0.30199693       0.49496941 </v>
   <v>       0.69066465       0.38928328       0.49483099 </v>
   <v>       0.77436667       0.39892087       0.49162862 </v>
   <v>       0.60457666       0.37637380       0.49042174 </v>
   <v>       0.62730484       0.22824850       0.49154591 </v>
   <v>       0.49259228       0.05208259       0.55327112 </v>
   <v>       0.50430651       0.96034584       0.62107073 </v>
   <v>       0.56045272       0.50929462       0.55322328 </v>
   <v>       0.45837467       0.49723518       0.62115306 </v>
   <v>       0.94975407       0.43984051       0.55248612 </v>
   <v>       0.03999986       0.54306480       0.62098146 </v>
   <v>       0.45466780       0.95067956       0.44589443 </v>
   <v>       0.57184208       0.03706020       0.41642914 </v>
   <v>       0.49646792       0.54601755       0.44520422 </v>
   <v>       0.46749703       0.42864261       0.41590320 </v>
   <v>       0.05062188       0.50381869       0.44561162 </v>
   <v>       0.96350331       0.53486882       0.41657206 </v>
   <v>       0.28174404       0.64271574       0.51690642 </v>
   <v>       0.36104994       0.71760936       0.51613477 </v>
   <v>       0.35624613       0.63768938       0.51589664 </v>
   <v>       0.71995395       0.36523604       0.49570610 </v>
   <v>       0.64811172       0.28302982       0.49570209 </v>
   <v>       0.63822749       0.35543739       0.49494433 </v>
   <v>       0.55989957       0.13937235       0.51635904 </v>
   <v>       0.51715211       0.10512494       0.55718028 </v>
   <v>       0.50997220       0.03011753       0.50828177 </v>
   <v>       0.47988193       0.97093341       0.50376532 </v>
   <v>       0.47545229       0.93793741       0.55784575 </v>
   <v>       0.44544857       0.88323501       0.55197600 </v>
   <v>       0.58528684       0.19704032       0.52437065 </v>
   <v>       0.58202010       0.44302029       0.51587407 </v>
   <v>       0.58947526       0.48542194       0.55715115 </v>
   <v>       0.52156131       0.49148430       0.50782722 </v>
   <v>       0.49209027       0.52107531       0.50326302 </v>
   <v>       0.46392794       0.52555204       0.55757631 </v>
   <v>       0.43886925       0.55515390       0.55167605 </v>
   <v>       0.61462735       0.41812431       0.52391646 </v>
   <v>       0.86274631       0.42005366       0.51624129 </v>
   <v>       0.89708195       0.41131966       0.55661130 </v>
   <v>       0.97129029       0.47945993       0.50775987 </v>
   <v>       0.03014099       0.50860013       0.50340760 </v>
   <v>       0.06264687       0.53687343       0.55779462 </v>
   <v>       0.11704047       0.56146294       0.55233660 </v>
   <v>       0.80548113       0.38788238       0.52444515 </v>
   <v>       0.55211925       0.06154314       0.46487242 </v>
   <v>       0.57729842       0.11642053       0.46818014 </v>
   <v>       0.42022493       0.86206125       0.49081131 </v>
   <v>       0.42587484       0.89779873       0.43982919 </v>
   <v>       0.38970688       0.80447653       0.47986621 </v>
   <v>       0.51168231       0.44944180       0.46418756 </v>
   <v>       0.54201621       0.42508104       0.46743960 </v>
   <v>       0.44231026       0.58006510       0.49033956 </v>
   <v>       0.47221633       0.57460129       0.43920157 </v>
   <v>       0.41482657       0.61010686       0.47958385 </v>
   <v>       0.93971719       0.49037072       0.46473914 </v>
   <v>       0.88522340       0.46064244       0.46828331 </v>
   <v>       0.13843190       0.55756616       0.49127286 </v>
   <v>       0.10321244       0.52773961       0.43997746 </v>
   <v>       0.19569867       0.58462122       0.48075795 </v>
   <v>       0.48301931       0.93603372       0.67311146 </v>
   <v>       0.54807032       0.00128404       0.61702130 </v>
   <v>       0.45633483       0.51933725       0.67304570 </v>
   <v>       0.45526340       0.45310878       0.61756194 </v>
   <v>       0.06384194       0.54554260       0.67317274 </v>
   <v>       0.99930459       0.54622648       0.61673538 </v>
   <v>       0.58856169       0.06028174       0.36246414 </v>
   <v>       0.57091745       0.99560635       0.43388170 </v>
   <v>       0.47394495       0.41150602       0.36218320 </v>
   <v>       0.42696652       0.42904095       0.43340295 </v>
   <v>       0.93991648       0.52874659       0.36305324 </v>
   <v>       0.00480365       0.57523673       0.43384015 </v>
   <v>       0.44210275       0.85730425       0.59339398 </v>
   <v>       0.50222252       0.12147589       0.59514662 </v>
   <v>       0.56691933       0.21222832       0.55976175 </v>
   <v>       0.41651312       0.55850205       0.59319669 </v>
   <v>       0.62030940       0.50063368       0.59551695 </v>
   <v>       0.64754872       0.43647357       0.56000575 </v>
   <v>       0.14257947       0.58383711       0.59398038 </v>
   <v>       0.88114526       0.37983699       0.59438620 </v>
   <v>       0.79053878       0.35428282       0.55986544 </v>
   <v>       0.61010484       0.14118912       0.43497303 </v>
   <v>       0.40662884       0.88293562       0.39141533 </v>
   <v>       0.36587039       0.79056471       0.43373947 </v>
   <v>       0.53464127       0.39237380       0.43406476 </v>
   <v>       0.47630555       0.59380374       0.39074523 </v>
   <v>       0.42486854       0.63467965       0.43396206 </v>
   <v>       0.86036644       0.46887907       0.43542922 </v>
   <v>       0.11827489       0.52344072       0.39165759 </v>
   <v>       0.20987884       0.57477204       0.43473686 </v>
  </varray>
 </structure>
</modeling>
