<?xml version="1.0" encoding="ISO-8859-1"?>
<modeling>
 <generator>
  <i name="program" type="string">vasp </i>
  <i name="version" type="string">5.4.4.18Apr17-6-g9f103f2a35  </i>
  <i name="subversion" type="string">(build Jun 07 2020 16:50:00) complex            parallel </i>
  <i name="platform" type="string">LinuxIFC </i>
  <i name="date" type="string">2023 03 02 </i>
  <i name="time" type="string">09:54:40 </i>
 </generator>
 <incar>
  <i type="string" name="SYSTEM">Simulation for cell shape cell volume r</i>
  <i type="int" name="ISTART">     1</i>
  <i type="string" name="PREC">high</i>
  <i type="string" name="ALGO">48</i>
  <i type="int" name="ICHARG">    11</i>
  <i type="int" name="NELM">   200</i>
  <i type="int" name="IBRION">    -1</i>
  <i name="EDIFF">      0.00001000</i>
  <i name="EDIFFG">     -0.01000000</i>
  <i type="int" name="NSW">     0</i>
  <i type="int" name="ISIF">     2</i>
  <i name="ENCUT">    500.00000000</i>
  <i name="POTIM">      0.30000000</i>
  <i type="string" name="LREAL">A</i>
  <i type="int" name="ISMEAR">     0</i>
  <i name="SIGMA">      0.01000000</i>
  <i type="int" name="NWRITE">     0</i>
  <i type="logical" name="LWAVE"> F  </i>
  <i type="logical" name="LCHARG"> F  </i>
  <v type="int" name="KPOINT_BSE">    -1     0     0     0</v>
  <i type="int" name="NELM">   200</i>
  <i type="string" name="GGA">PE</i>
 </incar>
 <structure name="primitive_cell" >
  <crystal>
   <varray name="basis" >
    <v>      29.00868369       0.00218930       0.00000000 </v>
    <v>     -14.50244458      25.11420973       0.00000000 </v>
    <v>       0.00000000       0.00000000      20.00000000 </v>
   </varray>
   <i name="volume">  14571.23832720 </i>
   <varray name="rec_basis" >
    <v>       0.03447093       0.01990558       0.00000000 </v>
    <v>      -0.00000300       0.03981636       0.00000000 </v>
    <v>       0.00000000       0.00000000       0.05000000 </v>
   </varray>
  </crystal>
  <varray name="positions" >
   <v>       0.47372780       0.03415382      -0.45025634 </v>
   <v>       0.45388092       0.05748301      -0.44597142 </v>
   <v>       0.44628218      -0.02087931      -0.45028611 </v>
   <v>      -0.47090504       0.05977182      -0.45907595 </v>
   <v>       0.40311740      -0.04428003      -0.44597173 </v>
   <v>       0.47614457      -0.04638258      -0.45916741 </v>
   <v>      -0.44378968       0.03309041      -0.46069008 </v>
   <v>      -0.43980673       0.11797050      -0.47287214 </v>
   <v>      -0.47006865      -0.01959836      -0.46077088 </v>
   <v>      -0.46857942       0.14259955      -0.48057955 </v>
   <v>      -0.38666230       0.14137137      -0.48003111 </v>
   <v>       0.44910830      -0.10455962      -0.47299289 </v>
   <v>      -0.44132130       0.19160965       0.49314854 </v>
   <v>       0.39574064      -0.12913682      -0.48102213 </v>
   <v>      -0.36403015       0.19032915       0.49339966 </v>
   <v>       0.48864652       0.20578794      -0.42238860 </v>
   <v>       0.47871640      -0.12817516      -0.47970178 </v>
   <v>      -0.39002984       0.21571827       0.47494353 </v>
   <v>      -0.46445400       0.22699091       0.48660425 </v>
   <v>      -0.49294676       0.23473410      -0.46261798 </v>
   <v>       0.37403097      -0.17812924       0.49272647 </v>
   <v>       0.45242047      -0.17706871       0.49363755 </v>
   <v>       0.29101319      -0.19300324      -0.42097806 </v>
   <v>      -0.30539142       0.22458049       0.48677327 </v>
   <v>      -0.44878112       0.25770113       0.43070576 </v>
   <v>       0.40113961      -0.20234794       0.47468426 </v>
   <v>      -0.28039584       0.20182415      -0.42290677 </v>
   <v>       0.31552162      -0.21357570       0.48659590 </v>
   <v>       0.27997545      -0.22172686      -0.46157671 </v>
   <v>      -0.26936996       0.23122656      -0.46266050 </v>
   <v>      -0.49276047       0.28297924      -0.46295299 </v>
   <v>      -0.28986189       0.25549090       0.43106584 </v>
   <v>       0.47659437      -0.21156131       0.48795397 </v>
   <v>      -0.47686504      -0.18895709      -0.42074416 </v>
   <v>       0.48884237       0.29410141      -0.42332961 </v>
   <v>      -0.44818863       0.30322441       0.43065254 </v>
   <v>       0.29988726      -0.24398141       0.43048816 </v>
   <v>      -0.46368783       0.31880411       0.48616779 </v>
   <v>      -0.49493734      -0.21842679      -0.46047693 </v>
   <v>       0.23214858      -0.27014706      -0.46145846 </v>
   <v>      -0.22084002       0.27900097      -0.46283309 </v>
   <v>       0.46173288      -0.24253260       0.43236613 </v>
   <v>      -0.24431801       0.30032921       0.43088703 </v>
   <v>       0.20345662      -0.28163672      -0.42074836 </v>
   <v>       0.25492214      -0.28951144       0.43060164 </v>
   <v>      -0.21327899       0.31522878       0.48644955 </v>
   <v>      -0.19146403       0.28943016      -0.42318175 </v>
   <v>       0.22467696      -0.30558377       0.48683081 </v>
   <v>      -0.43968431       0.37739137       0.49278894 </v>
   <v>      -0.49487650      -0.26654193      -0.45971569 </v>
   <v>       0.46205103      -0.28758564       0.43287520 </v>
   <v>      -0.38832879       0.40370982       0.47425030 </v>
   <v>      -0.47689737      -0.27717177      -0.41906028 </v>
   <v>      -0.46615826       0.39960071      -0.47995944 </v>
   <v>       0.47705956      -0.30270176       0.48927120 </v>
   <v>      -0.17795407       0.37369710       0.49310021 </v>
   <v>      -0.20252109       0.40062700       0.47500457 </v>
   <v>       0.19015789      -0.36423557       0.49307479 </v>
   <v>      -0.36128630       0.45467081       0.49389316 </v>
   <v>       0.21494552      -0.39063710       0.47443918 </v>
   <v>      -0.28704292       0.46315918       0.43204916 </v>
   <v>      -0.12903170       0.39540168      -0.48035613 </v>
   <v>      -0.43653369       0.45265735      -0.47168197 </v>
   <v>       0.14134999      -0.38662663      -0.48003999 </v>
   <v>      -0.24228462       0.46223864       0.43224046 </v>
   <v>      -0.30278492       0.47762567       0.48830757 </v>
   <v>       0.45372246      -0.36120958       0.49590618 </v>
   <v>      -0.17783434       0.45166100       0.49433052 </v>
   <v>       0.40246473      -0.38821895       0.47755341 </v>
   <v>      -0.21230235       0.47585986       0.48866178 </v>
   <v>      -0.38307250       0.48150059      -0.47876271 </v>
   <v>      -0.26748256      -0.49558946      -0.45942788 </v>
   <v>      -0.21981881      -0.49649081      -0.45926448 </v>
   <v>       0.19050622      -0.44197652       0.49323429 </v>
   <v>       0.48251794       0.45633644      -0.45843144 </v>
   <v>      -0.10499963       0.44851250      -0.47219467 </v>
   <v>       0.48082089      -0.38308950      -0.47778253 </v>
   <v>      -0.46369085       0.48352697      -0.45709015 </v>
   <v>      -0.27861910      -0.47817769      -0.41861183 </v>
   <v>      -0.12904812       0.47793946      -0.47875045 </v>
   <v>       0.05697669      -0.39547312      -0.43912460 </v>
   <v>       0.25720232      -0.44893209       0.43176132 </v>
   <v>       0.11745707      -0.44002105      -0.47257816 </v>
   <v>       0.30266817      -0.44834501       0.43229763 </v>
   <v>      -0.19129198      -0.47972465      -0.41833537 </v>
   <v>       0.22580814      -0.46519913       0.48703660 </v>
   <v>       0.37636930      -0.43976988       0.49529768 </v>
   <v>       0.31776766      -0.46408712       0.48808651 </v>
   <v>       0.14166327      -0.46898859      -0.47999851 </v>
   <v>       0.03368071      -0.43842433      -0.44604074 </v>
   <v>       0.45608753       0.48259699      -0.45815754 </v>
   <v>       0.23291321      -0.49423368      -0.46233458 </v>
   <v>       0.45197142      -0.43654880      -0.47055823 </v>
   <v>       0.28134847      -0.49369089      -0.46181864 </v>
   <v>      -0.04682528       0.47904548      -0.45838797 </v>
   <v>       0.05927897      -0.46775750      -0.45857299 </v>
   <v>      -0.43398280      -0.46114146      -0.44780461 </v>
   <v>       0.39889526      -0.46630718      -0.47846910 </v>
   <v>      -0.02009512       0.45214957      -0.46383058 </v>
   <v>      -0.39082002      -0.44127403      -0.44341934 </v>
   <v>      -0.44187385      -0.39058397      -0.44295768 </v>
   <v>       0.20326309       0.48666590      -0.42300119 </v>
   <v>       0.29203380       0.48765404      -0.42205878 </v>
   <v>       0.48306840      -0.46360460      -0.45655700 </v>
   <v>      -0.02131711      -0.46599956      -0.44596677 </v>
   <v>      -0.04472111      -0.44646558      -0.43898255 </v>
   <v>      -0.46158864      -0.43373063      -0.44753399 </v>
   <v>       0.03261325       0.47860337      -0.46393283 </v>
  </varray>
 </structure>
 <varray name="primitive_index" >
  <v type="int" >        1 </v>
  <v type="int" >       91 </v>
  <v type="int" >       46 </v>
  <v type="int" >        2 </v>
  <v type="int" >      104 </v>
  <v type="int" >       45 </v>
  <v type="int" >       55 </v>
  <v type="int" >        3 </v>
  <v type="int" >       74 </v>
  <v type="int" >       57 </v>
  <v type="int" >       56 </v>
  <v type="int" >       13 </v>
  <v type="int" >        5 </v>
  <v type="int" >       65 </v>
  <v type="int" >        4 </v>
  <v type="int" >       92 </v>
  <v type="int" >       66 </v>
  <v type="int" >       58 </v>
  <v type="int" >       24 </v>
  <v type="int" >       23 </v>
  <v type="int" >       12 </v>
  <v type="int" >       14 </v>
  <v type="int" >      103 </v>
  <v type="int" >       29 </v>
  <v type="int" >       79 </v>
  <v type="int" >       67 </v>
  <v type="int" >       97 </v>
  <v type="int" >       41 </v>
  <v type="int" >       42 </v>
  <v type="int" >       30 </v>
  <v type="int" >       22 </v>
  <v type="int" >       84 </v>
  <v type="int" >       36 </v>
  <v type="int" >       98 </v>
  <v type="int" >       93 </v>
  <v type="int" >       80 </v>
  <v type="int" >       90 </v>
  <v type="int" >       21 </v>
  <v type="int" >       35 </v>
  <v type="int" >       43 </v>
  <v type="int" >       31 </v>
  <v type="int" >       85 </v>
  <v type="int" >       83 </v>
  <v type="int" >      102 </v>
  <v type="int" >       89 </v>
  <v type="int" >       32 </v>
  <v type="int" >       96 </v>
  <v type="int" >       44 </v>
  <v type="int" >        6 </v>
  <v type="int" >       34 </v>
  <v type="int" >       86 </v>
  <v type="int" >       61 </v>
  <v type="int" >       99 </v>
  <v type="int" >       59 </v>
  <v type="int" >       33 </v>
  <v type="int" >       11 </v>
  <v type="int" >       64 </v>
  <v type="int" >       20 </v>
  <v type="int" >        8 </v>
  <v type="int" >       73 </v>
  <v type="int" >       81 </v>
  <v type="int" >       63 </v>
  <v type="int" >        7 </v>
  <v type="int" >       72 </v>
  <v type="int" >       82 </v>
  <v type="int" >       28 </v>
  <v type="int" >       15 </v>
  <v type="int" >        9 </v>
  <v type="int" >       70 </v>
  <v type="int" >       25 </v>
  <v type="int" >       60 </v>
  <v type="int" >       27 </v>
  <v type="int" >       26 </v>
  <v type="int" >       18 </v>
  <v type="int" >       75 </v>
  <v type="int" >       10 </v>
  <v type="int" >       68 </v>
  <v type="int" >       50 </v>
  <v type="int" >       94 </v>
  <v type="int" >       62 </v>
  <v type="int" >      108 </v>
  <v type="int" >       88 </v>
  <v type="int" >       19 </v>
  <v type="int" >       87 </v>
  <v type="int" >       95 </v>
  <v type="int" >       37 </v>
  <v type="int" >       17 </v>
  <v type="int" >       40 </v>
  <v type="int" >       71 </v>
  <v type="int" >       52 </v>
  <v type="int" >       76 </v>
  <v type="int" >       38 </v>
  <v type="int" >       16 </v>
  <v type="int" >       39 </v>
  <v type="int" >       54 </v>
  <v type="int" >       51 </v>
  <v type="int" >       49 </v>
  <v type="int" >       69 </v>
  <v type="int" >       77 </v>
  <v type="int" >      105 </v>
  <v type="int" >      106 </v>
  <v type="int" >      101 </v>
  <v type="int" >      100 </v>
  <v type="int" >       47 </v>
  <v type="int" >       53 </v>
  <v type="int" >      107 </v>
  <v type="int" >       48 </v>
  <v type="int" >       78 </v>
 </varray>
 <kpoints>
  <generation param="listgenerated">
   <i name="divisions" type="int">      20 </i>
   <v>       0.00000000       0.00000000       0.00000000 </v>
   <v>       0.50000000       0.00000000       0.00000000 </v>
   <v>       0.33333333       0.33333333       0.00000000 </v>
   <v>       0.00000000       0.00000000       0.00000000 </v>
  </generation>
  <varray name="kpointlist" >
   <v>       0.00000000       0.00000000       0.00000000 </v>
   <v>       0.02631579       0.00000000       0.00000000 </v>
   <v>       0.05263158       0.00000000       0.00000000 </v>
   <v>       0.07894737       0.00000000       0.00000000 </v>
   <v>       0.10526316       0.00000000       0.00000000 </v>
   <v>       0.13157895       0.00000000       0.00000000 </v>
   <v>       0.15789474       0.00000000       0.00000000 </v>
   <v>       0.18421053       0.00000000       0.00000000 </v>
   <v>       0.21052632       0.00000000       0.00000000 </v>
   <v>       0.23684211       0.00000000       0.00000000 </v>
   <v>       0.26315789       0.00000000       0.00000000 </v>
   <v>       0.28947368       0.00000000       0.00000000 </v>
   <v>       0.31578947       0.00000000       0.00000000 </v>
   <v>       0.34210526       0.00000000       0.00000000 </v>
   <v>       0.36842105       0.00000000       0.00000000 </v>
   <v>       0.39473684       0.00000000       0.00000000 </v>
   <v>       0.42105263       0.00000000       0.00000000 </v>
   <v>       0.44736842       0.00000000       0.00000000 </v>
   <v>       0.47368421       0.00000000       0.00000000 </v>
   <v>       0.50000000       0.00000000       0.00000000 </v>
   <v>       0.50000000       0.00000000       0.00000000 </v>
   <v>       0.49122807       0.01754386       0.00000000 </v>
   <v>       0.48245614       0.03508772       0.00000000 </v>
   <v>       0.47368421       0.05263158       0.00000000 </v>
   <v>       0.46491228       0.07017544       0.00000000 </v>
   <v>       0.45614035       0.08771930       0.00000000 </v>
   <v>       0.44736842       0.10526316       0.00000000 </v>
   <v>       0.43859649       0.12280702       0.00000000 </v>
   <v>       0.42982456       0.14035088       0.00000000 </v>
   <v>       0.42105263       0.15789474       0.00000000 </v>
   <v>       0.41228070       0.17543860       0.00000000 </v>
   <v>       0.40350877       0.19298246       0.00000000 </v>
   <v>       0.39473684       0.21052632       0.00000000 </v>
   <v>       0.38596491       0.22807018       0.00000000 </v>
   <v>       0.37719298       0.24561404       0.00000000 </v>
   <v>       0.36842105       0.26315789       0.00000000 </v>
   <v>       0.35964912       0.28070175       0.00000000 </v>
   <v>       0.35087719       0.29824561       0.00000000 </v>
   <v>       0.34210526       0.31578947       0.00000000 </v>
   <v>       0.33333333       0.33333333       0.00000000 </v>
   <v>       0.33333333       0.33333333       0.00000000 </v>
   <v>       0.31578947       0.31578947       0.00000000 </v>
   <v>       0.29824561       0.29824561       0.00000000 </v>
   <v>       0.28070175       0.28070175       0.00000000 </v>
   <v>       0.26315789       0.26315789       0.00000000 </v>
   <v>       0.24561404       0.24561404       0.00000000 </v>
   <v>       0.22807018       0.22807018       0.00000000 </v>
   <v>       0.21052632       0.21052632       0.00000000 </v>
   <v>       0.19298246       0.19298246       0.00000000 </v>
   <v>       0.17543860       0.17543860       0.00000000 </v>
   <v>       0.15789474       0.15789474       0.00000000 </v>
   <v>       0.14035088       0.14035088       0.00000000 </v>
   <v>       0.12280702       0.12280702       0.00000000 </v>
   <v>       0.10526316       0.10526316       0.00000000 </v>
   <v>       0.08771930       0.08771930       0.00000000 </v>
   <v>       0.07017544       0.07017544       0.00000000 </v>
   <v>       0.05263158       0.05263158       0.00000000 </v>
   <v>       0.03508772       0.03508772       0.00000000 </v>
   <v>       0.01754386       0.01754386       0.00000000 </v>
   <v>       0.00000000       0.00000000       0.00000000 </v>
  </varray>
  <varray name="weights" >
   <v>       0.01666667 </v>
   <v>       0.01666667 </v>
   <v>       0.01666667 </v>
   <v>       0.01666667 </v>
   <v>       0.01666667 </v>
   <v>       0.01666667 </v>
   <v>       0.01666667 </v>
   <v>       0.01666667 </v>
   <v>       0.01666667 </v>
   <v>       0.01666667 </v>
   <v>       0.01666667 </v>
   <v>       0.01666667 </v>
   <v>       0.01666667 </v>
   <v>       0.01666667 </v>
   <v>       0.01666667 </v>
   <v>       0.01666667 </v>
   <v>       0.01666667 </v>
   <v>       0.01666667 </v>
   <v>       0.01666667 </v>
   <v>       0.01666667 </v>
   <v>       0.01666667 </v>
   <v>       0.01666667 </v>
   <v>       0.01666667 </v>
   <v>       0.01666667 </v>
   <v>       0.01666667 </v>
   <v>       0.01666667 </v>
   <v>       0.01666667 </v>
   <v>       0.01666667 </v>
   <v>       0.01666667 </v>
   <v>       0.01666667 </v>
   <v>       0.01666667 </v>
   <v>       0.01666667 </v>
   <v>       0.01666667 </v>
   <v>       0.01666667 </v>
   <v>       0.01666667 </v>
   <v>       0.01666667 </v>
   <v>       0.01666667 </v>
   <v>       0.01666667 </v>
   <v>       0.01666667 </v>
   <v>       0.01666667 </v>
   <v>       0.01666667 </v>
   <v>       0.01666667 </v>
   <v>       0.01666667 </v>
   <v>       0.01666667 </v>
   <v>       0.01666667 </v>
   <v>       0.01666667 </v>
   <v>       0.01666667 </v>
   <v>       0.01666667 </v>
   <v>       0.01666667 </v>
   <v>       0.01666667 </v>
   <v>       0.01666667 </v>
   <v>       0.01666667 </v>
   <v>       0.01666667 </v>
   <v>       0.01666667 </v>
   <v>       0.01666667 </v>
   <v>       0.01666667 </v>
   <v>       0.01666667 </v>
   <v>       0.01666667 </v>
   <v>       0.01666667 </v>
   <v>       0.01666667 </v>
  </varray>
 </kpoints>
 <parameters>
  <separator name="general" >
   <i type="string" name="SYSTEM">Simulation for cell shape cell volume r</i>
   <i type="logical" name="LCOMPAT"> F  </i>
  </separator>
  <separator name="electronic" >
   <i type="string" name="PREC">high</i>
   <i name="ENMAX">    500.00000000</i>
   <i name="ENAUG">    644.87300000</i>
   <i name="EDIFF">      0.00001000</i>
   <i type="int" name="IALGO">    38</i>
   <i type="int" name="IWAVPR">    10</i>
   <i type="int" name="NBANDS">   272</i>
   <i name="NELECT">    414.00000000</i>
   <i type="int" name="TURBO">     0</i>
   <i type="int" name="IRESTART">     0</i>
   <i type="int" name="NREBOOT">     0</i>
   <i type="int" name="NMIN">     0</i>
   <i name="EREF">      0.00000000</i>
   <separator name="electronic smearing" >
    <i type="int" name="ISMEAR">     0</i>
    <i name="SIGMA">      0.01000000</i>
    <i name="KSPACING">      0.50000000</i>
    <i type="logical" name="KGAMMA"> T  </i>
   </separator>
   <separator name="electronic projectors" >
    <i type="logical" name="LREAL"> T  </i>
    <v name="ROPT">     -0.00040000     -0.00040000     -0.00040000</v>
    <i type="int" name="LMAXPAW">  -100</i>
    <i type="int" name="LMAXMIX">     2</i>
    <i type="logical" name="NLSPLINE"> F  </i>
   </separator>
   <separator name="electronic startup" >
    <i type="int" name="ISTART">     1</i>
    <i type="int" name="ICHARG">    11</i>
    <i type="int" name="INIWAV">     1</i>
   </separator>
   <separator name="electronic spin" >
    <i type="int" name="ISPIN">     1</i>
    <i type="logical" name="LNONCOLLINEAR"> F  </i>
    <v name="MAGMOM">      1.00000000      1.00000000      1.00000000      1.00000000      1.00000000      1.00000000      1.00000000      1.00000000      1.00000000      1.00000000      1.00000000      1.00000000      1.00000000      1.00000000      1.00000000      1.00000000      1.00000000      1.00000000      1.00000000      1.00000000
      1.00000000      1.00000000      1.00000000      1.00000000      1.00000000      1.00000000      1.00000000      1.00000000      1.00000000      1.00000000      1.00000000      1.00000000      1.00000000      1.00000000      1.00000000      1.00000000      1.00000000      1.00000000      1.00000000      1.00000000
      1.00000000      1.00000000      1.00000000      1.00000000      1.00000000      1.00000000      1.00000000      1.00000000      1.00000000      1.00000000      1.00000000      1.00000000      1.00000000      1.00000000      1.00000000      1.00000000      1.00000000      1.00000000      1.00000000      1.00000000
      1.00000000      1.00000000      1.00000000      1.00000000      1.00000000      1.00000000      1.00000000      1.00000000      1.00000000      1.00000000      1.00000000      1.00000000      1.00000000      1.00000000      1.00000000      1.00000000      1.00000000      1.00000000      1.00000000      1.00000000
      1.00000000      1.00000000      1.00000000      1.00000000      1.00000000      1.00000000      1.00000000      1.00000000      1.00000000      1.00000000      1.00000000      1.00000000      1.00000000      1.00000000      1.00000000      1.00000000      1.00000000      1.00000000      1.00000000      1.00000000
      1.00000000      1.00000000      1.00000000      1.00000000      1.00000000      1.00000000      1.00000000      1.00000000</v>
    <i name="NUPDOWN">     -1.00000000</i>
    <i type="logical" name="LSORBIT"> F  </i>
    <v name="SAXIS">      0.00000000      0.00000000      1.00000000</v>
    <i type="logical" name="LSPIRAL"> F  </i>
    <v name="QSPIRAL">      0.00000000      0.00000000      0.00000000</v>
    <i type="logical" name="LZEROZ"> F  </i>
   </separator>
   <separator name="electronic exchange-correlation" >
    <i type="logical" name="LASPH"> F  </i>
    <i type="logical" name="LMETAGGA"> F  </i>
   </separator>
   <separator name="electronic convergence" >
    <i type="int" name="NELM">   200</i>
    <i type="int" name="NELMDL">     0</i>
    <i type="int" name="NELMIN">     2</i>
    <i name="ENINI">    500.00000000</i>
    <separator name="electronic convergence detail" >
     <i type="logical" name="LDIAG"> T  </i>
     <i type="logical" name="LSUBROT"> F  </i>
     <i name="WEIMIN">      0.00000000</i>
     <i name="EBREAK">      0.00000001</i>
     <i name="DEPER">      0.30000000</i>
     <i type="int" name="NRMM">     4</i>
     <i name="TIME">      0.40000000</i>
    </separator>
   </separator>
   <separator name="electronic mixer" >
    <i name="AMIX">      0.40000000</i>
    <i name="BMIX">      1.00000000</i>
    <i name="AMIN">      0.10000000</i>
    <i name="AMIX_MAG">      1.60000000</i>
    <i name="BMIX_MAG">      1.00000000</i>
    <separator name="electronic mixer details" >
     <i type="int" name="IMIX">     4</i>
     <i type="logical" name="MIXFIRST"> F  </i>
     <i type="int" name="MAXMIX">   -45</i>
     <i name="WC">    100.00000000</i>
     <i type="int" name="INIMIX">     1</i>
     <i type="int" name="MIXPRE">     1</i>
     <i type="int" name="MREMOVE">     5</i>
    </separator>
   </separator>
   <separator name="electronic dipolcorrection" >
    <i type="logical" name="LDIPOL"> F  </i>
    <i type="logical" name="LMONO"> F  </i>
    <i type="int" name="IDIPOL">     0</i>
    <i name="EPSILON">      1.00000000</i>
    <v name="DIPOL">   -100.00000000   -100.00000000   -100.00000000</v>
    <i name="EFIELD">      0.00000000</i>
   </separator>
  </separator>
  <separator name="grids" >
   <i type="int" name="NGX">   216</i>
   <i type="int" name="NGY">   216</i>
   <i type="int" name="NGZ">   150</i>
   <i type="int" name="NGXF">   320</i>
   <i type="int" name="NGYF">   320</i>
   <i type="int" name="NGZF">   224</i>
   <i type="logical" name="ADDGRID"> F  </i>
  </separator>
  <separator name="ionic" >
   <i type="int" name="NSW">     0</i>
   <i type="int" name="IBRION">    -1</i>
   <i type="int" name="MDALGO">     0</i>
   <i type="int" name="ISIF">     2</i>
   <i name="PSTRESS">      0.00000000</i>
   <i name="EDIFFG">     -0.01000000</i>
   <i type="int" name="NFREE">     0</i>
   <i name="POTIM">      0.30000000</i>
   <i name="SMASS">     -3.00000000</i>
   <i name="SCALEE">      1.00000000</i>
  </separator>
  <separator name="ionic md" >
   <i name="TEBEG">      0.00010000</i>
   <i name="TEEND">      0.00010000</i>
   <i type="int" name="NBLOCK">     1</i>
   <i type="int" name="KBLOCK">     1</i>
   <i type="int" name="NPACO">   256</i>
   <i name="APACO">     16.00000000</i>
  </separator>
  <separator name="symmetry" >
   <i type="int" name="ISYM">     2</i>
   <i name="SYMPREC">      0.00001000</i>
  </separator>
  <separator name="dos" >
   <i type="int" name="LORBIT">     0</i>
   <v name="RWIGS">     -1.00000000     -1.00000000     -1.00000000</v>
   <i type="int" name="NEDOS">   301</i>
   <i name="EMIN">     10.00000000</i>
   <i name="EMAX">    -10.00000000</i>
   <i name="EFERMI">      0.00000000</i>
  </separator>
  <separator name="writing" >
   <i type="int" name="NWRITE">     0</i>
   <i type="logical" name="LWAVE"> F  </i>
   <i type="logical" name="LDOWNSAMPLE"> F  </i>
   <i type="logical" name="LCHARG"> F  </i>
   <i type="logical" name="LPARD"> F  </i>
   <i type="logical" name="LVTOT"> F  </i>
   <i type="logical" name="LVHAR"> F  </i>
   <i type="logical" name="LELF"> F  </i>
   <i type="logical" name="LOPTICS"> F  </i>
   <v name="STM">      0.00000000      0.00000000      0.00000000      0.00000000      0.00000000      0.00000000      0.00000000</v>
  </separator>
  <separator name="performance" >
   <i type="int" name="NPAR">    16</i>
   <i type="int" name="NSIM">     4</i>
   <i type="int" name="NBLK">    -1</i>
   <i type="logical" name="LPLANE"> T  </i>
   <i type="logical" name="LSCALAPACK"> T  </i>
   <i type="logical" name="LSCAAWARE"> F  </i>
   <i type="logical" name="LSCALU"> F  </i>
   <i type="logical" name="LASYNC"> F  </i>
   <i type="logical" name="LORBITALREAL"> F  </i>
  </separator>
  <separator name="miscellaneous" >
   <i type="int" name="IDIOT">     3</i>
   <i type="int" name="ISPECIAL">     0</i>
   <i type="logical" name="LMUSIC"> F  </i>
   <v name="POMASS">     12.01100000     14.00100000      1.00000000</v>
   <v name="DARWINR">      0.00000000      0.00000000      0.00000000</v>
   <v name="DARWINV">      1.00000000      1.00000000      1.00000000</v>
   <i type="logical" name="LCORR"> T  </i>
  </separator>
  <i type="logical" name="GGA_COMPAT"> T  </i>
  <i type="logical" name="LBERRY"> F  </i>
  <i type="int" name="ICORELEVEL">     0</i>
  <i type="logical" name="LDAU"> F  </i>
  <i type="int" name="I_CONSTRAINED_M">     0</i>
  <separator name="electronic exchange-correlation" >
   <i type="string" name="GGA">PE</i>
   <i type="int" name="VOSKOWN">     0</i>
   <i type="logical" name="LHFCALC"> F  </i>
   <i type="string" name="PRECFOCK"></i>
   <i type="logical" name="LSYMGRAD"> F  </i>
   <i type="logical" name="LHFONE"> F  </i>
   <i type="logical" name="LRHFCALC"> F  </i>
   <i type="logical" name="LTHOMAS"> F  </i>
   <i type="logical" name="LMODELHF"> F  </i>
   <i name="ENCUT4O">     -1.00000000</i>
   <i type="int" name="EXXOEP">     0</i>
   <i type="int" name="FOURORBIT">     0</i>
   <i name="AEXX">      0.00000000</i>
   <i name="HFALPHA">      0.00000000</i>
   <i name="MCALPHA">      0.00000000</i>
   <i name="ALDAX">      1.00000000</i>
   <i name="AGGAX">      1.00000000</i>
   <i name="ALDAC">      1.00000000</i>
   <i name="AGGAC">      1.00000000</i>
   <i type="int" name="NKREDX">     1</i>
   <i type="int" name="NKREDY">     1</i>
   <i type="int" name="NKREDZ">     1</i>
   <i type="logical" name="SHIFTRED"> F  </i>
   <i type="logical" name="ODDONLY"> F  </i>
   <i type="logical" name="EVENONLY"> F  </i>
   <i type="int" name="LMAXFOCK">     0</i>
   <i type="int" name="NMAXFOCKAE">     0</i>
   <i type="logical" name="LFOCKAEDFT"> F  </i>
   <i name="HFSCREEN">      0.00000000</i>
   <i name="HFSCREENC">      0.00000000</i>
   <i type="int" name="NBANDSGWLOW">     0</i>
  </separator>
  <separator name="vdW DFT" >
   <i type="logical" name="LUSE_VDW"> F  </i>
   <i name="Zab_VDW">     -0.84910000</i>
   <i name="PARAM1">      0.12340000</i>
   <i name="PARAM2">      1.00000000</i>
   <i name="PARAM3">      0.00000000</i>
  </separator>
  <separator name="model GW" >
   <i type="int" name="MODEL_GW">     0</i>
   <i name="MODEL_EPS0">     80.95132404</i>
   <i name="MODEL_ALPHA">      1.00000000</i>
  </separator>
  <separator name="linear response parameters" >
   <i type="logical" name="LEPSILON"> F  </i>
   <i type="logical" name="LRPA"> F  </i>
   <i type="logical" name="LNABLA"> F  </i>
   <i type="logical" name="LVEL"> F  </i>
   <i type="int" name="KINTER">     0</i>
   <i name="CSHIFT">      0.10000000</i>
   <i name="OMEGAMAX">     -1.00000000</i>
   <i name="DEG_THRESHOLD">      0.00200000</i>
   <i name="RTIME">     -0.10000000</i>
   <i name="WPLASMAI">      0.00000000</i>
   <v name="DFIELD">      0.00000000      0.00000000      0.00000000</v>
   <v name="WPLASMA">      0.00000000      0.00000000      0.00000000      0.00000000      0.00000000      0.00000000      0.00000000      0.00000000      0.00000000</v>
  </separator>
  <separator name="orbital magnetization" >
   <i type="logical" name="NUCIND"> F  </i>
   <v name="MAGPOS">      0.00000000      0.00000000      0.00000000</v>
   <i type="logical" name="LNICSALL"> T  </i>
   <i type="logical" name="ORBITALMAG"> F  </i>
   <i type="logical" name="LMAGBLOCH"> F  </i>
   <i type="logical" name="LCHIMAG"> F  </i>
   <i type="logical" name="LGAUGE"> T  </i>
   <i type="int" name="MAGATOM">     0</i>
   <v name="MAGDIPOL">      0.00000000      0.00000000      0.00000000</v>
   <v name="AVECCONST">      0.00000000      0.00000000      0.00000000</v>
  </separator>
  <separator name="response functions" >
   <i type="logical" name="LADDER"> F  </i>
   <i type="logical" name="LRPAFORCE"> F  </i>
   <i type="logical" name="LFXC"> F  </i>
   <i type="logical" name="LHARTREE"> T  </i>
   <i type="int" name="IBSE">     0</i>
   <v type="int" name="KPOINT">    -1     0     0     0</v>
   <i type="logical" name="LTCTE"> F  </i>
   <i type="logical" name="LTETE"> F  </i>
   <i type="logical" name="LTRIPLET"> F  </i>
   <i type="logical" name="LFXCEPS"> F  </i>
   <i type="logical" name="LFXHEG"> F  </i>
   <i type="int" name="NATURALO">     2</i>
   <i type="logical" name="L2ORDER"> F  </i>
   <i type="logical" name="LMP2LT"> F  </i>
   <i type="logical" name="LUSEW"> F  </i>
   <i name="ENCUTGW">     -2.00000000</i>
   <i name="ENCUTGWSOFT">     -2.00000000</i>
   <i name="ENCUTLF">     -1.00000000</i>
   <i type="int" name="LMAXMP2">    -1</i>
   <i name="SCISSOR">      0.00000000</i>
   <i type="int" name="NOMEGA">     0</i>
   <i type="int" name="NOMEGAR">     0</i>
   <i type="int" name="NBANDSGW">    -1</i>
   <i type="int" name="NBANDSO">    -1</i>
   <i type="int" name="NBANDSV">    -1</i>
   <i type="int" name="NELM">   200</i>
   <i type="int" name="NELMHF">     1</i>
   <i type="int" name="DIM">     3</i>
   <i type="int" name="ANTIRES">     0</i>
   <i name="OMEGAMAX">    -30.00000000</i>
   <i name="OMEGAMIN">    -30.00000000</i>
   <i name="OMEGATL">   -200.00000000</i>
   <i type="int" name="OMEGAGRID">   140</i>
   <i name="CSHIFT">     -0.10000000</i>
   <i type="logical" name="SELFENERGY"> F  </i>
   <i type="logical" name="LSPECTRAL"> F  </i>
   <i type="logical" name="LSPECTRALGW"> F  </i>
   <i type="logical" name="LSINGLES"> F  </i>
   <i type="logical" name="LFERMIGW"> F  </i>
   <i type="logical" name="ODDONLYGW"> F  </i>
   <i type="logical" name="EVENONLYGW"> F  </i>
   <i type="int" name="NKREDLFX">     1</i>
   <i type="int" name="NKREDLFY">     1</i>
   <i type="int" name="NKREDLFZ">     1</i>
   <i type="int" name="MAXMEM">  2800</i>
   <i type="int" name="TELESCOPE">     0</i>
   <i type="int" name="TAUPAR">     1</i>
   <i type="int" name="OMEGAPAR">    -1</i>
   <i name="LAMBDA">      1.00000000</i>
  </separator>
  <separator name="External order field" >
   <i name="OFIELD_KAPPA">      0.00000000</i>
   <v name="OFIELD_K">      0.00000000      0.00000000      0.00000000</v>
   <i name="OFIELD_Q6_NEAR">      0.00000000</i>
   <i name="OFIELD_Q6_FAR">      0.00000000</i>
   <i name="OFIELD_A">      0.00000000</i>
  </separator>
  <separator name="solvation model" >
   <i type="logical" name="LSOL"> F  </i>
  </separator>
 </parameters>
 <atominfo>
  <atoms>     108 </atoms>
  <types>       3 </types>
  <array name="atoms" >
   <dimension dim="1">ion</dimension>
   <field type="string">element</field>
   <field type="int">atomtype</field>
   <set>
    <rc><c>C </c><c>   1</c></rc>
    <rc><c>C </c><c>   1</c></rc>
    <rc><c>C </c><c>   1</c></rc>
    <rc><c>C </c><c>   1</c></rc>
    <rc><c>C </c><c>   1</c></rc>
    <rc><c>C </c><c>   1</c></rc>
    <rc><c>C </c><c>   1</c></rc>
    <rc><c>C </c><c>   1</c></rc>
    <rc><c>C </c><c>   1</c></rc>
    <rc><c>C </c><c>   1</c></rc>
    <rc><c>C </c><c>   1</c></rc>
    <rc><c>C </c><c>   1</c></rc>
    <rc><c>C </c><c>   1</c></rc>
    <rc><c>C </c><c>   1</c></rc>
    <rc><c>C </c><c>   1</c></rc>
    <rc><c>C </c><c>   1</c></rc>
    <rc><c>C </c><c>   1</c></rc>
    <rc><c>C </c><c>   1</c></rc>
    <rc><c>C </c><c>   1</c></rc>
    <rc><c>C </c><c>   1</c></rc>
    <rc><c>C </c><c>   1</c></rc>
    <rc><c>C </c><c>   1</c></rc>
    <rc><c>C </c><c>   1</c></rc>
    <rc><c>C </c><c>   1</c></rc>
    <rc><c>C </c><c>   1</c></rc>
    <rc><c>C </c><c>   1</c></rc>
    <rc><c>C </c><c>   1</c></rc>
    <rc><c>C </c><c>   1</c></rc>
    <rc><c>C </c><c>   1</c></rc>
    <rc><c>C </c><c>   1</c></rc>
    <rc><c>C </c><c>   1</c></rc>
    <rc><c>C </c><c>   1</c></rc>
    <rc><c>C </c><c>   1</c></rc>
    <rc><c>C </c><c>   1</c></rc>
    <rc><c>C </c><c>   1</c></rc>
    <rc><c>C </c><c>   1</c></rc>
    <rc><c>C </c><c>   1</c></rc>
    <rc><c>C </c><c>   1</c></rc>
    <rc><c>C </c><c>   1</c></rc>
    <rc><c>C </c><c>   1</c></rc>
    <rc><c>C </c><c>   1</c></rc>
    <rc><c>C </c><c>   1</c></rc>
    <rc><c>C </c><c>   1</c></rc>
    <rc><c>C </c><c>   1</c></rc>
    <rc><c>C </c><c>   1</c></rc>
    <rc><c>C </c><c>   1</c></rc>
    <rc><c>C </c><c>   1</c></rc>
    <rc><c>C </c><c>   1</c></rc>
    <rc><c>C </c><c>   1</c></rc>
    <rc><c>C </c><c>   1</c></rc>
    <rc><c>C </c><c>   1</c></rc>
    <rc><c>C </c><c>   1</c></rc>
    <rc><c>C </c><c>   1</c></rc>
    <rc><c>C </c><c>   1</c></rc>
    <rc><c>N </c><c>   2</c></rc>
    <rc><c>N </c><c>   2</c></rc>
    <rc><c>N </c><c>   2</c></rc>
    <rc><c>N </c><c>   2</c></rc>
    <rc><c>N </c><c>   2</c></rc>
    <rc><c>N </c><c>   2</c></rc>
    <rc><c>N </c><c>   2</c></rc>
    <rc><c>N </c><c>   2</c></rc>
    <rc><c>N </c><c>   2</c></rc>
    <rc><c>N </c><c>   2</c></rc>
    <rc><c>N </c><c>   2</c></rc>
    <rc><c>N </c><c>   2</c></rc>
    <rc><c>N </c><c>   2</c></rc>
    <rc><c>N </c><c>   2</c></rc>
    <rc><c>N </c><c>   2</c></rc>
    <rc><c>N </c><c>   2</c></rc>
    <rc><c>N </c><c>   2</c></rc>
    <rc><c>N </c><c>   2</c></rc>
    <rc><c>N </c><c>   2</c></rc>
    <rc><c>N </c><c>   2</c></rc>
    <rc><c>N </c><c>   2</c></rc>
    <rc><c>N </c><c>   2</c></rc>
    <rc><c>N </c><c>   2</c></rc>
    <rc><c>N </c><c>   2</c></rc>
    <rc><c>N </c><c>   2</c></rc>
    <rc><c>N </c><c>   2</c></rc>
    <rc><c>N </c><c>   2</c></rc>
    <rc><c>N </c><c>   2</c></rc>
    <rc><c>N </c><c>   2</c></rc>
    <rc><c>N </c><c>   2</c></rc>
    <rc><c>N </c><c>   2</c></rc>
    <rc><c>N </c><c>   2</c></rc>
    <rc><c>N </c><c>   2</c></rc>
    <rc><c>N </c><c>   2</c></rc>
    <rc><c>N </c><c>   2</c></rc>
    <rc><c>N </c><c>   2</c></rc>
    <rc><c>H </c><c>   3</c></rc>
    <rc><c>H </c><c>   3</c></rc>
    <rc><c>H </c><c>   3</c></rc>
    <rc><c>H </c><c>   3</c></rc>
    <rc><c>H </c><c>   3</c></rc>
    <rc><c>H </c><c>   3</c></rc>
    <rc><c>H </c><c>   3</c></rc>
    <rc><c>H </c><c>   3</c></rc>
    <rc><c>H </c><c>   3</c></rc>
    <rc><c>H </c><c>   3</c></rc>
    <rc><c>H </c><c>   3</c></rc>
    <rc><c>H </c><c>   3</c></rc>
    <rc><c>H </c><c>   3</c></rc>
    <rc><c>H </c><c>   3</c></rc>
    <rc><c>H </c><c>   3</c></rc>
    <rc><c>H </c><c>   3</c></rc>
    <rc><c>H </c><c>   3</c></rc>
    <rc><c>H </c><c>   3</c></rc>
   </set>
  </array>
  <array name="atomtypes" >
   <dimension dim="1">type</dimension>
   <field type="int">atomspertype</field>
   <field type="string">element</field>
   <field>mass</field>
   <field>valence</field>
   <field type="string">pseudopotential</field>
   <set>
    <rc><c>  54</c><c>C </c><c>     12.01100000</c><c>      4.00000000</c><c>  PAW_PBE C 08Apr2002                   </c></rc>
    <rc><c>  36</c><c>N </c><c>     14.00100000</c><c>      5.00000000</c><c>  PAW_PBE N 08Apr2002                   </c></rc>
    <rc><c>  18</c><c>H </c><c>      1.00000000</c><c>      1.00000000</c><c>  PAW_PBE H 15Jun2001                   </c></rc>
   </set>
  </array>
 </atominfo>
 <structure name="initialpos" >
  <crystal>
   <varray name="basis" >
    <v>      29.00868369       0.00218930       0.00000000 </v>
    <v>     -14.50244458      25.11420973       0.00000000 </v>
    <v>       0.00000000       0.00000000      20.00000000 </v>
   </varray>
   <i name="volume">  14571.23832720 </i>
   <varray name="rec_basis" >
    <v>       0.03447093       0.01990558       0.00000000 </v>
    <v>      -0.00000300       0.03981636       0.00000000 </v>
    <v>       0.00000000       0.00000000       0.05000000 </v>
   </varray>
  </crystal>
  <varray name="positions" >
   <v>       0.47372780       0.03415382       0.54974366 </v>
   <v>       0.52909496       0.05977182       0.54092405 </v>
   <v>       0.56019327       0.11797050       0.52712786 </v>
   <v>       0.63596985       0.19032915       0.49339966 </v>
   <v>       0.55867870       0.19160965       0.49314854 </v>
   <v>       0.56031569       0.37739137       0.49278894 </v>
   <v>       0.56346631       0.45265735       0.52831803 </v>
   <v>       0.63871370       0.45467081       0.49389316 </v>
   <v>       0.82216566       0.45166100       0.49433052 </v>
   <v>       0.89500037       0.44851250       0.52780533 </v>
   <v>       0.82204593       0.37369710       0.49310021 </v>
   <v>       0.37403097       0.82187076       0.49272647 </v>
   <v>       0.44910830       0.89544038       0.52700711 </v>
   <v>       0.45242047       0.82293129       0.49363755 </v>
   <v>       0.45372246       0.63879042       0.49590618 </v>
   <v>       0.45197142       0.56345120       0.52944177 </v>
   <v>       0.37636930       0.56023012       0.49529768 </v>
   <v>       0.19050622       0.55802348       0.49323429 </v>
   <v>       0.11745707       0.55997895       0.52742184 </v>
   <v>       0.19015789       0.63576443       0.49307479 </v>
   <v>       0.53631217       0.31880411       0.48616779 </v>
   <v>       0.50723953       0.28297924       0.53704701 </v>
   <v>       0.50705324       0.23473410       0.53738202 </v>
   <v>       0.53554600       0.22699091       0.48660425 </v>
   <v>       0.78769765       0.47585986       0.48866178 </v>
   <v>       0.78018119       0.50350919       0.54073552 </v>
   <v>       0.73251744       0.50441054       0.54057212 </v>
   <v>       0.69721508       0.47762567       0.48830757 </v>
   <v>       0.69460858       0.22458049       0.48677327 </v>
   <v>       0.73063004       0.23122656       0.53733950 </v>
   <v>       0.77915998       0.27900097       0.53716691 </v>
   <v>       0.78672101       0.31522878       0.48644955 </v>
   <v>       0.47705956       0.69729824       0.48927120 </v>
   <v>       0.50512350       0.73345807       0.54028431 </v>
   <v>       0.50506266       0.78157321       0.53952307 </v>
   <v>       0.47659437       0.78843869       0.48795397 </v>
   <v>       0.22580814       0.53480087       0.48703660 </v>
   <v>       0.23291321       0.50576632       0.53766542 </v>
   <v>       0.28134847       0.50630911       0.53818136 </v>
   <v>       0.31776766       0.53591288       0.48808651 </v>
   <v>       0.31552162       0.78642430       0.48659590 </v>
   <v>       0.27997545       0.77827314       0.53842329 </v>
   <v>       0.23214858       0.72985294       0.53854154 </v>
   <v>       0.22467696       0.69441623       0.48683081 </v>
   <v>       0.47614457       0.95361742       0.54083259 </v>
   <v>       0.44628218       0.97912069       0.54971389 </v>
   <v>       0.48306840       0.53639540       0.54344300 </v>
   <v>       0.53841136       0.56626937       0.55246601 </v>
   <v>       0.56601720       0.53885854       0.55219539 </v>
   <v>       0.53630915       0.48352697       0.54290985 </v>
   <v>       0.05927897       0.53224250       0.54142701 </v>
   <v>       0.03368071       0.56157567       0.55395926 </v>
   <v>       0.97868289       0.53400044       0.55403323 </v>
   <v>       0.95317472       0.47904548       0.54161203 </v>
   <v>       0.55621032       0.03309041       0.53930992 </v>
   <v>       0.61333770       0.14137137       0.51996889 </v>
   <v>       0.53142058       0.14259955       0.51942045 </v>
   <v>       0.60997016       0.21571827       0.47494353 </v>
   <v>       0.53384174       0.39960071       0.52004056 </v>
   <v>       0.61692750       0.48150059       0.52123729 </v>
   <v>       0.61167121       0.40370982       0.47425030 </v>
   <v>       0.87095188       0.47793946       0.52124955 </v>
   <v>       0.87096830       0.39540168       0.51964387 </v>
   <v>       0.79747891       0.40062700       0.47500457 </v>
   <v>       0.39574064       0.87086318       0.51897787 </v>
   <v>       0.47871640       0.87182484       0.52029822 </v>
   <v>       0.40113961       0.79765206       0.47468426 </v>
   <v>       0.48082089       0.61691050       0.52221747 </v>
   <v>       0.39889526       0.53369282       0.52153090 </v>
   <v>       0.40246473       0.61178105       0.47755341 </v>
   <v>       0.14166327       0.53101141       0.52000149 </v>
   <v>       0.14134999       0.61337337       0.51996001 </v>
   <v>       0.21494552       0.60936290       0.47443918 </v>
   <v>       0.52993135       0.98040164       0.53922912 </v>
   <v>       0.48251794       0.45633644       0.54156856 </v>
   <v>       0.45608753       0.48259699       0.54184246 </v>
   <v>       0.97990488       0.45214957       0.53616942 </v>
   <v>       0.03261325       0.47860337       0.53606717 </v>
   <v>       0.55121888       0.25770113       0.43070576 </v>
   <v>       0.55181137       0.30322441       0.43065254 </v>
   <v>       0.71295708       0.46315918       0.43204916 </v>
   <v>       0.75771538       0.46223864       0.43224046 </v>
   <v>       0.75568199       0.30032921       0.43088703 </v>
   <v>       0.71013811       0.25549090       0.43106584 </v>
   <v>       0.46173288       0.75746740       0.43236613 </v>
   <v>       0.46205103       0.71241436       0.43287520 </v>
   <v>       0.30266817       0.55165499       0.43229763 </v>
   <v>       0.25720232       0.55106791       0.43176132 </v>
   <v>       0.25492214       0.71048856       0.43060164 </v>
   <v>       0.29988726       0.75601859       0.43048816 </v>
   <v>       0.45388092       0.05748301       0.55402858 </v>
   <v>       0.48864652       0.20578794       0.57761140 </v>
   <v>       0.48884237       0.29410141       0.57667039 </v>
   <v>       0.72138090       0.52182231       0.58138817 </v>
   <v>       0.80870802       0.52027535       0.58166463 </v>
   <v>       0.80853597       0.28943016       0.57681825 </v>
   <v>       0.71960416       0.20182415       0.57709323 </v>
   <v>       0.52313496       0.81104291       0.57925584 </v>
   <v>       0.52310263       0.72282823       0.58093972 </v>
   <v>       0.29203380       0.48765404       0.57794122 </v>
   <v>       0.20326309       0.48666590       0.57699881 </v>
   <v>       0.20345662       0.71836328       0.57925164 </v>
   <v>       0.29101319       0.80699676       0.57902194 </v>
   <v>       0.40311740       0.95571997       0.55402827 </v>
   <v>       0.60917998       0.55872597       0.55658066 </v>
   <v>       0.55812615       0.60941603       0.55704232 </v>
   <v>       0.95527889       0.55353442       0.56101745 </v>
   <v>       0.05697669       0.60452688       0.56087540 </v>
  </varray>
 </structure>
 <calculation>
  <scstep>
   <time name="dav">  363.77  367.60</time>
   <time name="total">  364.03  367.87</time>
   <energy>
    <i name="alphaZ">     54.79572259 </i>
    <i name="ewald">  56003.55199209 </i>
    <i name="hartreedc"> -70415.69457982 </i>
    <i name="XCdc">   1517.11552918 </i>
    <i name="pawpsdc">  40813.69781963 </i>
    <i name="pawaedc"> -40899.88123452 </i>
    <i name="eentropy">     -0.00000000 </i>
    <i name="bandstr">  -5596.02553489 </i>
    <i name="atom">  17694.02508872 </i>
    <i name="e_fr_energy">   -828.41519703 </i>
    <i name="e_wo_entrp">   -828.41519703 </i>
    <i name="e_0_energy">   -828.41519703 </i>
   </energy>
  </scstep>
  <scstep>
   <time name="dav">  402.73  406.83</time>
   <time name="total">  402.74  406.84</time>
   <energy>
    <i name="e_fr_energy">   -829.02972688 </i>
    <i name="e_wo_entrp">   -829.02972688 </i>
    <i name="e_0_energy">   -829.02972688 </i>
   </energy>
  </scstep>
  <scstep>
   <time name="dav">  469.26  474.14</time>
   <time name="total">  469.27  474.15</time>
   <energy>
    <i name="e_fr_energy">   -829.04636558 </i>
    <i name="e_wo_entrp">   -829.04636558 </i>
    <i name="e_0_energy">   -829.04636558 </i>
   </energy>
  </scstep>
  <scstep>
   <time name="dav">  391.60  395.63</time>
   <time name="total">  391.62  395.64</time>
   <energy>
    <i name="e_fr_energy">   -829.04655106 </i>
    <i name="e_wo_entrp">   -829.04655106 </i>
    <i name="e_0_energy">   -829.04655106 </i>
   </energy>
  </scstep>
  <scstep>
   <time name="dav">  365.71  369.48</time>
   <time name="total">  365.72  369.49</time>
   <energy>
    <i name="alphaZ">     54.79572259 </i>
    <i name="ewald">  56003.55199209 </i>
    <i name="hartreedc"> -70415.69457982 </i>
    <i name="XCdc">   1517.11552918 </i>
    <i name="pawpsdc">  40813.69781963 </i>
    <i name="pawaedc"> -40899.88123452 </i>
    <i name="eentropy">     -0.00000000 </i>
    <i name="bandstr">  -5596.65689591 </i>
    <i name="atom">  17694.02508872 </i>
    <i name="e_fr_energy">   -829.04655805 </i>
    <i name="e_wo_entrp">   -829.04655805 </i>
    <i name="e_0_energy">   -829.04655805 </i>
   </energy>
  </scstep>
  <structure>
   <crystal>
    <varray name="basis" >
     <v>      29.00868369       0.00218930       0.00000000 </v>
     <v>     -14.50244458      25.11420973       0.00000000 </v>
     <v>       0.00000000       0.00000000      20.00000000 </v>
    </varray>
    <i name="volume">  14571.23832720 </i>
    <varray name="rec_basis" >
     <v>       0.03447093       0.01990558       0.00000000 </v>
     <v>      -0.00000300       0.03981636       0.00000000 </v>
     <v>       0.00000000       0.00000000       0.05000000 </v>
    </varray>
   </crystal>
   <varray name="positions" >
    <v>       0.47372780       0.03415382       0.54974366 </v>
    <v>       0.52909496       0.05977182       0.54092405 </v>
    <v>       0.56019327       0.11797050       0.52712786 </v>
    <v>       0.63596985       0.19032915       0.49339966 </v>
    <v>       0.55867870       0.19160965       0.49314854 </v>
    <v>       0.56031569       0.37739137       0.49278894 </v>
    <v>       0.56346631       0.45265735       0.52831803 </v>
    <v>       0.63871370       0.45467081       0.49389316 </v>
    <v>       0.82216566       0.45166100       0.49433052 </v>
    <v>       0.89500037       0.44851250       0.52780533 </v>
    <v>       0.82204593       0.37369710       0.49310021 </v>
    <v>       0.37403097       0.82187076       0.49272647 </v>
    <v>       0.44910830       0.89544038       0.52700711 </v>
    <v>       0.45242047       0.82293129       0.49363755 </v>
    <v>       0.45372246       0.63879042       0.49590618 </v>
    <v>       0.45197142       0.56345120       0.52944177 </v>
    <v>       0.37636930       0.56023012       0.49529768 </v>
    <v>       0.19050622       0.55802348       0.49323429 </v>
    <v>       0.11745707       0.55997895       0.52742184 </v>
    <v>       0.19015789       0.63576443       0.49307479 </v>
    <v>       0.53631217       0.31880411       0.48616779 </v>
    <v>       0.50723953       0.28297924       0.53704701 </v>
    <v>       0.50705324       0.23473410       0.53738202 </v>
    <v>       0.53554600       0.22699091       0.48660425 </v>
    <v>       0.78769765       0.47585986       0.48866178 </v>
    <v>       0.78018119       0.50350919       0.54073552 </v>
    <v>       0.73251744       0.50441054       0.54057212 </v>
    <v>       0.69721508       0.47762567       0.48830757 </v>
    <v>       0.69460858       0.22458049       0.48677327 </v>
    <v>       0.73063004       0.23122656       0.53733950 </v>
    <v>       0.77915998       0.27900097       0.53716691 </v>
    <v>       0.78672101       0.31522878       0.48644955 </v>
    <v>       0.47705956       0.69729824       0.48927120 </v>
    <v>       0.50512350       0.73345807       0.54028431 </v>
    <v>       0.50506266       0.78157321       0.53952307 </v>
    <v>       0.47659437       0.78843869       0.48795397 </v>
    <v>       0.22580814       0.53480087       0.48703660 </v>
    <v>       0.23291321       0.50576632       0.53766542 </v>
    <v>       0.28134847       0.50630911       0.53818136 </v>
    <v>       0.31776766       0.53591288       0.48808651 </v>
    <v>       0.31552162       0.78642430       0.48659590 </v>
    <v>       0.27997545       0.77827314       0.53842329 </v>
    <v>       0.23214858       0.72985294       0.53854154 </v>
    <v>       0.22467696       0.69441623       0.48683081 </v>
    <v>       0.47614457       0.95361742       0.54083259 </v>
    <v>       0.44628218       0.97912069       0.54971389 </v>
    <v>       0.48306840       0.53639540       0.54344300 </v>
    <v>       0.53841136       0.56626937       0.55246601 </v>
    <v>       0.56601720       0.53885854       0.55219539 </v>
    <v>       0.53630915       0.48352697       0.54290985 </v>
    <v>       0.05927897       0.53224250       0.54142701 </v>
    <v>       0.03368071       0.56157567       0.55395926 </v>
    <v>       0.97868289       0.53400044       0.55403323 </v>
    <v>       0.95317472       0.47904548       0.54161203 </v>
    <v>       0.55621032       0.03309041       0.53930992 </v>
    <v>       0.61333770       0.14137137       0.51996889 </v>
    <v>       0.53142058       0.14259955       0.51942045 </v>
    <v>       0.60997016       0.21571827       0.47494353 </v>
    <v>       0.53384174       0.39960071       0.52004056 </v>
    <v>       0.61692750       0.48150059       0.52123729 </v>
    <v>       0.61167121       0.40370982       0.47425030 </v>
    <v>       0.87095188       0.47793946       0.52124955 </v>
    <v>       0.87096830       0.39540168       0.51964387 </v>
    <v>       0.79747891       0.40062700       0.47500457 </v>
    <v>       0.39574064       0.87086318       0.51897787 </v>
    <v>       0.47871640       0.87182484       0.52029822 </v>
    <v>       0.40113961       0.79765206       0.47468426 </v>
    <v>       0.48082089       0.61691050       0.52221747 </v>
    <v>       0.39889526       0.53369282       0.52153090 </v>
    <v>       0.40246473       0.61178105       0.47755341 </v>
    <v>       0.14166327       0.53101141       0.52000149 </v>
    <v>       0.14134999       0.61337337       0.51996001 </v>
    <v>       0.21494552       0.60936290       0.47443918 </v>
    <v>       0.52993135       0.98040164       0.53922912 </v>
    <v>       0.48251794       0.45633644       0.54156856 </v>
    <v>       0.45608753       0.48259699       0.54184246 </v>
    <v>       0.97990488       0.45214957       0.53616942 </v>
    <v>       0.03261325       0.47860337       0.53606717 </v>
    <v>       0.55121888       0.25770113       0.43070576 </v>
    <v>       0.55181137       0.30322441       0.43065254 </v>
    <v>       0.71295708       0.46315918       0.43204916 </v>
    <v>       0.75771538       0.46223864       0.43224046 </v>
    <v>       0.75568199       0.30032921       0.43088703 </v>
    <v>       0.71013811       0.25549090       0.43106584 </v>
    <v>       0.46173288       0.75746740       0.43236613 </v>
    <v>       0.46205103       0.71241436       0.43287520 </v>
    <v>       0.30266817       0.55165499       0.43229763 </v>
    <v>       0.25720232       0.55106791       0.43176132 </v>
    <v>       0.25492214       0.71048856       0.43060164 </v>
    <v>       0.29988726       0.75601859       0.43048816 </v>
    <v>       0.45388092       0.05748301       0.55402858 </v>
    <v>       0.48864652       0.20578794       0.57761140 </v>
    <v>       0.48884237       0.29410141       0.57667039 </v>
    <v>       0.72138090       0.52182231       0.58138817 </v>
    <v>       0.80870802       0.52027535       0.58166463 </v>
    <v>       0.80853597       0.28943016       0.57681825 </v>
    <v>       0.71960416       0.20182415       0.57709323 </v>
    <v>       0.52313496       0.81104291       0.57925584 </v>
    <v>       0.52310263       0.72282823       0.58093972 </v>
    <v>       0.29203380       0.48765404       0.57794122 </v>
    <v>       0.20326309       0.48666590       0.57699881 </v>
    <v>       0.20345662       0.71836328       0.57925164 </v>
    <v>       0.29101319       0.80699676       0.57902194 </v>
    <v>       0.40311740       0.95571997       0.55402827 </v>
    <v>       0.60917998       0.55872597       0.55658066 </v>
    <v>       0.55812615       0.60941603       0.55704232 </v>
    <v>       0.95527889       0.55353442       0.56101745 </v>
    <v>       0.05697669       0.60452688       0.56087540 </v>
   </varray>
  </structure>
  <varray name="forces" >
   <v>       0.00135237       0.00301518      -0.00173690 </v>
   <v>       0.00078151       0.00272836       0.00185951 </v>
   <v>       0.00390592       0.00288571      -0.00108966 </v>
   <v>       0.00260194       0.00088760      -0.00327866 </v>
   <v>       0.00140205      -0.00029447      -0.00399368 </v>
   <v>       0.00065729      -0.00182807       0.00203042 </v>
   <v>      -0.00366630      -0.00084420       0.00144409 </v>
   <v>       0.00068445      -0.00170084      -0.00188803 </v>
   <v>      -0.00017510      -0.00436401       0.00610876 </v>
   <v>       0.00263136       0.00379644       0.00113628 </v>
   <v>       0.00131353       0.00408164       0.00745889 </v>
   <v>       0.00225807      -0.00288104      -0.00115976 </v>
   <v>       0.00500724      -0.00163971      -0.00494306 </v>
   <v>      -0.00280401      -0.00032728      -0.00179980 </v>
   <v>      -0.00317452      -0.00301486      -0.00385180 </v>
   <v>      -0.00074615      -0.00168968      -0.00277742 </v>
   <v>       0.00241839      -0.00387174      -0.00186981 </v>
   <v>       0.00474777       0.00068787      -0.00047389 </v>
   <v>       0.00062299      -0.00214028      -0.00487572 </v>
   <v>       0.00492825      -0.00081851      -0.00055305 </v>
   <v>      -0.00386616      -0.00057108      -0.00396567 </v>
   <v>       0.00143011       0.00055866       0.00187731 </v>
   <v>       0.00102328      -0.00124508       0.00072676 </v>
   <v>       0.00081125       0.00097269       0.00023562 </v>
   <v>       0.00052022      -0.00115057      -0.00025787 </v>
   <v>      -0.00309009      -0.00002379       0.00038838 </v>
   <v>       0.00383040      -0.00223437       0.00080295 </v>
   <v>      -0.00226634      -0.00151085      -0.00028810 </v>
   <v>      -0.00034974      -0.00021322       0.00056493 </v>
   <v>      -0.00167789      -0.00276084      -0.00441766 </v>
   <v>       0.00543183       0.00280117       0.00089637 </v>
   <v>       0.00160783       0.00301412       0.00551817 </v>
   <v>       0.00378084      -0.00321649      -0.00321701 </v>
   <v>       0.00284736       0.00358998      -0.00263612 </v>
   <v>      -0.00198033       0.00338429       0.00048616 </v>
   <v>      -0.00932120       0.00255390       0.00208290 </v>
   <v>      -0.00131044       0.00356245      -0.00136935 </v>
   <v>      -0.00077115       0.00020261       0.00113200 </v>
   <v>      -0.00390357       0.00507156       0.00206382 </v>
   <v>       0.00041695       0.00292226      -0.00004957 </v>
   <v>      -0.00178000      -0.00373973       0.00277677 </v>
   <v>      -0.00251931       0.00193414       0.00194178 </v>
   <v>       0.00289714       0.00090174       0.00383910 </v>
   <v>       0.00257237       0.00334627       0.00167372 </v>
   <v>      -0.00474695      -0.00268703       0.00105818 </v>
   <v>      -0.00307469       0.00087455       0.00056768 </v>
   <v>       0.00331344      -0.00109931      -0.00012828 </v>
   <v>       0.00016528      -0.00102151       0.00116416 </v>
   <v>      -0.00029746       0.00106107      -0.00027937 </v>
   <v>      -0.00369775       0.00332093      -0.00067285 </v>
   <v>       0.00239776      -0.00031187       0.00154859 </v>
   <v>       0.00254180      -0.00156981      -0.00120761 </v>
   <v>       0.00044253      -0.00134588       0.00430865 </v>
   <v>      -0.00095968      -0.00200893       0.00133727 </v>
   <v>       0.00172203      -0.00203942      -0.00110379 </v>
   <v>       0.00369971       0.00100629      -0.00179245 </v>
   <v>      -0.00156832       0.00310770       0.00141577 </v>
   <v>      -0.00410701       0.00648757      -0.00169432 </v>
   <v>       0.00351758       0.00008112       0.00160751 </v>
   <v>       0.00209089      -0.00229635      -0.00080967 </v>
   <v>       0.00187334       0.00004458       0.00268300 </v>
   <v>       0.00507726      -0.00782741      -0.00274592 </v>
   <v>      -0.00317684       0.00380547       0.00292079 </v>
   <v>      -0.00008262      -0.00111488       0.00555245 </v>
   <v>      -0.00371719      -0.00295660      -0.00175726 </v>
   <v>       0.00185048      -0.00030925      -0.00225706 </v>
   <v>       0.00122395      -0.00049745      -0.00294844 </v>
   <v>      -0.00662948       0.00594511       0.00217536 </v>
   <v>      -0.00648471      -0.00089907      -0.00106174 </v>
   <v>       0.00342661      -0.00657878      -0.00486024 </v>
   <v>      -0.00458166       0.00045575      -0.00074049 </v>
   <v>      -0.00379178      -0.00353391      -0.00184912 </v>
   <v>       0.00480167      -0.00251441      -0.00483716 </v>
   <v>      -0.00699764       0.00151620       0.00030519 </v>
   <v>      -0.00277619       0.00150391       0.00235813 </v>
   <v>      -0.00342799      -0.00181661      -0.00093997 </v>
   <v>      -0.00414988       0.00442317      -0.00013016 </v>
   <v>      -0.00346559      -0.00015735       0.00205275 </v>
   <v>       0.00085787       0.00463793      -0.00503986 </v>
   <v>      -0.00396490      -0.00292922      -0.00308394 </v>
   <v>      -0.00182912       0.00039162       0.00357787 </v>
   <v>       0.00084639       0.00230094       0.00083449 </v>
   <v>      -0.00019103      -0.00156612       0.00696310 </v>
   <v>      -0.00164696       0.00090385       0.00075700 </v>
   <v>       0.00161542       0.00361026      -0.00056937 </v>
   <v>       0.00693077       0.00135633       0.00174930 </v>
   <v>       0.00239499       0.00243235       0.00234253 </v>
   <v>      -0.00014109       0.00266904      -0.00357465 </v>
   <v>      -0.00141821      -0.00243333      -0.00002464 </v>
   <v>      -0.00101467      -0.00126964       0.00162566 </v>
   <v>       0.00207387      -0.00078119       0.00038395 </v>
   <v>       0.00222099       0.00101558      -0.00081182 </v>
   <v>       0.00096476      -0.00108225      -0.00023435 </v>
   <v>       0.00261463      -0.00119061       0.00410493 </v>
   <v>       0.00123381      -0.00486833      -0.00057599 </v>
   <v>      -0.00083142      -0.00063534       0.00037655 </v>
   <v>      -0.00091986      -0.00165547       0.00013634 </v>
   <v>      -0.00625340       0.00111827       0.00264330 </v>
   <v>      -0.00419163      -0.00108854       0.00262312 </v>
   <v>      -0.00027929      -0.00200883       0.00119168 </v>
   <v>       0.00127516      -0.00002664       0.00001646 </v>
   <v>       0.00580441       0.00025501      -0.00636614 </v>
   <v>      -0.00027326      -0.00253808       0.00138610 </v>
   <v>       0.00266669       0.00091347      -0.00140264 </v>
   <v>      -0.00039937      -0.00111566      -0.00411635 </v>
   <v>      -0.00186336       0.00255024      -0.00210997 </v>
   <v>       0.00257623      -0.00242630       0.00000197 </v>
   <v>       0.00165028       0.00159513       0.00140372 </v>
  </varray>
  <varray name="stress" >
   <v>      -0.00236893       0.00093783      -0.00019404 </v>
   <v>       0.00093783      -0.00097216       0.00446474 </v>
   <v>      -0.00019404       0.00446474      -0.17084340 </v>
  </varray>
  <energy>
   <i name="e_fr_energy">   -831.23046166 </i>
   <i name="e_wo_entrp">   -831.23046166 </i>
   <i name="e_0_energy">     -0.00000000 </i>
  </energy>
  <time name="totalsc"> 2360.80 2386.34</time>
  <eigenvalues>
   <array>
    <dimension dim="1">band</dimension>
    <dimension dim="2">kpoint</dimension>
    <dimension dim="3">spin</dimension>
    <field>eigene</field>
    <field>occ</field>
    <set>
     <set comment="spin 1">
      <set comment="kpoint 1">
       <r>  -26.1342    1.0000 </r>
       <r>  -26.1084    1.0000 </r>
       <r>  -26.0541    1.0000 </r>
       <r>  -26.0401    1.0000 </r>
       <r>  -25.9952    1.0000 </r>
       <r>  -25.9893    1.0000 </r>
       <r>  -25.7728    1.0000 </r>
       <r>  -25.7682    1.0000 </r>
       <r>  -25.7559    1.0000 </r>
       <r>  -25.6750    1.0000 </r>
       <r>  -25.6704    1.0000 </r>
       <r>  -25.6072    1.0000 </r>
       <r>  -25.5890    1.0000 </r>
       <r>  -25.5351    1.0000 </r>
       <r>  -25.4781    1.0000 </r>
       <r>  -23.0336    1.0000 </r>
       <r>  -23.0295    1.0000 </r>
       <r>  -22.9835    1.0000 </r>
       <r>  -22.9810    1.0000 </r>
       <r>  -22.9594    1.0000 </r>
       <r>  -22.9486    1.0000 </r>
       <r>  -22.9035    1.0000 </r>
       <r>  -22.8588    1.0000 </r>
       <r>  -22.8493    1.0000 </r>
       <r>  -22.8218    1.0000 </r>
       <r>  -22.8215    1.0000 </r>
       <r>  -22.7793    1.0000 </r>
       <r>  -20.9480    1.0000 </r>
       <r>  -20.9366    1.0000 </r>
       <r>  -20.8932    1.0000 </r>
       <r>  -20.8643    1.0000 </r>
       <r>  -20.8430    1.0000 </r>
       <r>  -20.7802    1.0000 </r>
       <r>  -20.7710    1.0000 </r>
       <r>  -20.7235    1.0000 </r>
       <r>  -20.7201    1.0000 </r>
       <r>  -20.6962    1.0000 </r>
       <r>  -20.6876    1.0000 </r>
       <r>  -20.6486    1.0000 </r>
       <r>  -20.6322    1.0000 </r>
       <r>  -20.6279    1.0000 </r>
       <r>  -20.5893    1.0000 </r>
       <r>  -20.5851    1.0000 </r>
       <r>  -20.5460    1.0000 </r>
       <r>  -20.5428    1.0000 </r>
       <r>  -18.2660    1.0000 </r>
       <r>  -18.2633    1.0000 </r>
       <r>  -18.1716    1.0000 </r>
       <r>  -18.1600    1.0000 </r>
       <r>  -18.1120    1.0000 </r>
       <r>  -18.0394    1.0000 </r>
       <r>  -18.0304    1.0000 </r>
       <r>  -17.5495    1.0000 </r>
       <r>  -17.4905    1.0000 </r>
       <r>  -17.3861    1.0000 </r>
       <r>  -17.0234    1.0000 </r>
       <r>  -17.0149    1.0000 </r>
       <r>  -16.9578    1.0000 </r>
       <r>  -16.8281    1.0000 </r>
       <r>  -16.6607    1.0000 </r>
       <r>  -16.6132    1.0000 </r>
       <r>  -16.5893    1.0000 </r>
       <r>  -16.5526    1.0000 </r>
       <r>  -16.3810    1.0000 </r>
       <r>  -16.3034    1.0000 </r>
       <r>  -15.9811    1.0000 </r>
       <r>  -15.9728    1.0000 </r>
       <r>  -15.9164    1.0000 </r>
       <r>  -15.6165    1.0000 </r>
       <r>  -15.5977    1.0000 </r>
       <r>  -15.5528    1.0000 </r>
       <r>  -15.4202    1.0000 </r>
       <r>  -15.3235    1.0000 </r>
       <r>  -15.2299    1.0000 </r>
       <r>  -15.2076    1.0000 </r>
       <r>  -14.2511    1.0000 </r>
       <r>  -14.2485    1.0000 </r>
       <r>  -14.1452    1.0000 </r>
       <r>  -14.0048    1.0000 </r>
       <r>  -13.9612    1.0000 </r>
       <r>  -13.8874    1.0000 </r>
       <r>  -13.8356    1.0000 </r>
       <r>  -13.7707    1.0000 </r>
       <r>  -13.7494    1.0000 </r>
       <r>  -13.7232    1.0000 </r>
       <r>  -13.6878    1.0000 </r>
       <r>  -13.6365    1.0000 </r>
       <r>  -13.0113    1.0000 </r>
       <r>  -12.9679    1.0000 </r>
       <r>  -12.9124    1.0000 </r>
       <r>  -12.8945    1.0000 </r>
       <r>  -12.7297    1.0000 </r>
       <r>  -12.7116    1.0000 </r>
       <r>  -12.6737    1.0000 </r>
       <r>  -12.6178    1.0000 </r>
       <r>  -12.6113    1.0000 </r>
       <r>  -12.5187    1.0000 </r>
       <r>  -12.5156    1.0000 </r>
       <r>  -12.4914    1.0000 </r>
       <r>  -12.2360    1.0000 </r>
       <r>  -12.2081    1.0000 </r>
       <r>  -12.0684    1.0000 </r>
       <r>  -12.0551    1.0000 </r>
       <r>  -12.0245    1.0000 </r>
       <r>  -11.8666    1.0000 </r>
       <r>  -11.8574    1.0000 </r>
       <r>  -11.6227    1.0000 </r>
       <r>  -11.6199    1.0000 </r>
       <r>  -11.6118    1.0000 </r>
       <r>  -11.3460    1.0000 </r>
       <r>  -11.3222    1.0000 </r>
       <r>  -11.2685    1.0000 </r>
       <r>  -11.1327    1.0000 </r>
       <r>  -11.0834    1.0000 </r>
       <r>  -11.0826    1.0000 </r>
       <r>  -10.9471    1.0000 </r>
       <r>  -10.8359    1.0000 </r>
       <r>  -10.8345    1.0000 </r>
       <r>  -10.8160    1.0000 </r>
       <r>  -10.8090    1.0000 </r>
       <r>  -10.7901    1.0000 </r>
       <r>  -10.7846    1.0000 </r>
       <r>  -10.6839    1.0000 </r>
       <r>  -10.6374    1.0000 </r>
       <r>  -10.6340    1.0000 </r>
       <r>  -10.5629    1.0000 </r>
       <r>  -10.4929    1.0000 </r>
       <r>  -10.4901    1.0000 </r>
       <r>  -10.3850    1.0000 </r>
       <r>  -10.3639    1.0000 </r>
       <r>  -10.3336    1.0000 </r>
       <r>  -10.2628    1.0000 </r>
       <r>  -10.2487    1.0000 </r>
       <r>  -10.1236    1.0000 </r>
       <r>  -10.0856    1.0000 </r>
       <r>  -10.0558    1.0000 </r>
       <r>  -10.0050    1.0000 </r>
       <r>   -9.9317    1.0000 </r>
       <r>   -9.9155    1.0000 </r>
       <r>   -9.8296    1.0000 </r>
       <r>   -9.8045    1.0000 </r>
       <r>   -9.3260    1.0000 </r>
       <r>   -9.3175    1.0000 </r>
       <r>   -9.2915    1.0000 </r>
       <r>   -9.2698    1.0000 </r>
       <r>   -9.2216    1.0000 </r>
       <r>   -9.2079    1.0000 </r>
       <r>   -8.8923    1.0000 </r>
       <r>   -8.8917    1.0000 </r>
       <r>   -8.8821    1.0000 </r>
       <r>   -8.8695    1.0000 </r>
       <r>   -8.7622    1.0000 </r>
       <r>   -8.6407    1.0000 </r>
       <r>   -8.6337    1.0000 </r>
       <r>   -8.5201    1.0000 </r>
       <r>   -8.5073    1.0000 </r>
       <r>   -8.3991    1.0000 </r>
       <r>   -8.3970    1.0000 </r>
       <r>   -8.3795    1.0000 </r>
       <r>   -7.8804    1.0000 </r>
       <r>   -7.8579    1.0000 </r>
       <r>   -7.8543    1.0000 </r>
       <r>   -7.8262    1.0000 </r>
       <r>   -7.8178    1.0000 </r>
       <r>   -7.8133    1.0000 </r>
       <r>   -7.8078    1.0000 </r>
       <r>   -7.7702    1.0000 </r>
       <r>   -7.7275    1.0000 </r>
       <r>   -7.7139    1.0000 </r>
       <r>   -7.7046    1.0000 </r>
       <r>   -7.6428    1.0000 </r>
       <r>   -7.6409    1.0000 </r>
       <r>   -7.6277    1.0000 </r>
       <r>   -7.6216    1.0000 </r>
       <r>   -7.6042    1.0000 </r>
       <r>   -7.6004    1.0000 </r>
       <r>   -7.5045    1.0000 </r>
       <r>   -7.1973    1.0000 </r>
       <r>   -7.1824    1.0000 </r>
       <r>   -7.0052    1.0000 </r>
       <r>   -6.9843    1.0000 </r>
       <r>   -6.9636    1.0000 </r>
       <r>   -6.9116    1.0000 </r>
       <r>   -6.8721    1.0000 </r>
       <r>   -6.8478    1.0000 </r>
       <r>   -6.8393    1.0000 </r>
       <r>   -6.5248    1.0000 </r>
       <r>   -6.5071    1.0000 </r>
       <r>   -6.5030    1.0000 </r>
       <r>   -6.4538    1.0000 </r>
       <r>   -6.4371    1.0000 </r>
       <r>   -6.4271    1.0000 </r>
       <r>   -6.2845    1.0000 </r>
       <r>   -6.2764    1.0000 </r>
       <r>   -6.2512    1.0000 </r>
       <r>   -6.2417    1.0000 </r>
       <r>   -6.2207    1.0000 </r>
       <r>   -6.2175    1.0000 </r>
       <r>   -5.2754    1.0000 </r>
       <r>   -5.2709    1.0000 </r>
       <r>   -5.2277    1.0000 </r>
       <r>   -5.2085    1.0000 </r>
       <r>   -5.2012    1.0000 </r>
       <r>   -5.1892    1.0000 </r>
       <r>   -5.1618    1.0000 </r>
       <r>   -5.1053    1.0000 </r>
       <r>   -5.0972    1.0000 </r>
       <r>   -3.6985    0.0000 </r>
       <r>   -3.6654    0.0000 </r>
       <r>   -3.6602    0.0000 </r>
       <r>   -3.3618    0.0000 </r>
       <r>   -3.3565    0.0000 </r>
       <r>   -3.3011    0.0000 </r>
       <r>   -3.2994    0.0000 </r>
       <r>   -2.9179    0.0000 </r>
       <r>   -2.8804    0.0000 </r>
       <r>   -2.7595    0.0000 </r>
       <r>   -2.6907    0.0000 </r>
       <r>   -2.6328    0.0000 </r>
       <r>   -2.5051    0.0000 </r>
       <r>   -2.4924    0.0000 </r>
       <r>   -2.4729    0.0000 </r>
       <r>   -2.4173    0.0000 </r>
       <r>   -2.3921    0.0000 </r>
       <r>   -2.3881    0.0000 </r>
       <r>   -2.1436    0.0000 </r>
       <r>   -2.1377    0.0000 </r>
       <r>   -2.0465    0.0000 </r>
       <r>   -1.9780    0.0000 </r>
       <r>   -1.8693    0.0000 </r>
       <r>   -1.1985    0.0000 </r>
       <r>   -1.1922    0.0000 </r>
       <r>   -1.0978    0.0000 </r>
       <r>   -1.0945    0.0000 </r>
       <r>   -0.7736    0.0000 </r>
       <r>   -0.7374    0.0000 </r>
       <r>   -0.7359    0.0000 </r>
       <r>   -0.5110    0.0000 </r>
       <r>   -0.4619    0.0000 </r>
       <r>   -0.3696    0.0000 </r>
       <r>   -0.3658    0.0000 </r>
       <r>   -0.1346    0.0000 </r>
       <r>   -0.0860    0.0000 </r>
       <r>    0.0526    0.0000 </r>
       <r>    0.1208    0.0000 </r>
       <r>    0.1595    0.0000 </r>
       <r>    0.2985    0.0000 </r>
       <r>    0.3352    0.0000 </r>
       <r>    0.3825    0.0000 </r>
       <r>    0.4371    0.0000 </r>
       <r>    0.4595    0.0000 </r>
       <r>    0.4739    0.0000 </r>
       <r>    0.4910    0.0000 </r>
       <r>    0.5153    0.0000 </r>
       <r>    0.6057    0.0000 </r>
       <r>    0.6441    0.0000 </r>
       <r>    0.6519    0.0000 </r>
       <r>    0.7003    0.0000 </r>
       <r>    0.7035    0.0000 </r>
       <r>    0.7361    0.0000 </r>
       <r>    0.7835    0.0000 </r>
       <r>    0.7886    0.0000 </r>
       <r>    0.8092    0.0000 </r>
       <r>    0.8352    0.0000 </r>
       <r>    0.8591    0.0000 </r>
       <r>    0.8733    0.0000 </r>
       <r>    0.9207    0.0000 </r>
       <r>    0.9214    0.0000 </r>
       <r>    0.9422    0.0000 </r>
       <r>    0.9563    0.0000 </r>
       <r>    0.9664    0.0000 </r>
       <r>    0.9782    0.0000 </r>
      </set>
      <set comment="kpoint 2">
       <r>  -26.1342    1.0000 </r>
       <r>  -26.1085    1.0000 </r>
       <r>  -26.0541    1.0000 </r>
       <r>  -26.0400    1.0000 </r>
       <r>  -25.9953    1.0000 </r>
       <r>  -25.9893    1.0000 </r>
       <r>  -25.7737    1.0000 </r>
       <r>  -25.7672    1.0000 </r>
       <r>  -25.7559    1.0000 </r>
       <r>  -25.6758    1.0000 </r>
       <r>  -25.6697    1.0000 </r>
       <r>  -25.6073    1.0000 </r>
       <r>  -25.5891    1.0000 </r>
       <r>  -25.5349    1.0000 </r>
       <r>  -25.4782    1.0000 </r>
       <r>  -23.0336    1.0000 </r>
       <r>  -23.0294    1.0000 </r>
       <r>  -22.9835    1.0000 </r>
       <r>  -22.9810    1.0000 </r>
       <r>  -22.9595    1.0000 </r>
       <r>  -22.9490    1.0000 </r>
       <r>  -22.9032    1.0000 </r>
       <r>  -22.8588    1.0000 </r>
       <r>  -22.8493    1.0000 </r>
       <r>  -22.8225    1.0000 </r>
       <r>  -22.8207    1.0000 </r>
       <r>  -22.7794    1.0000 </r>
       <r>  -20.9479    1.0000 </r>
       <r>  -20.9366    1.0000 </r>
       <r>  -20.8933    1.0000 </r>
       <r>  -20.8643    1.0000 </r>
       <r>  -20.8430    1.0000 </r>
       <r>  -20.7805    1.0000 </r>
       <r>  -20.7707    1.0000 </r>
       <r>  -20.7234    1.0000 </r>
       <r>  -20.7201    1.0000 </r>
       <r>  -20.6962    1.0000 </r>
       <r>  -20.6877    1.0000 </r>
       <r>  -20.6487    1.0000 </r>
       <r>  -20.6322    1.0000 </r>
       <r>  -20.6279    1.0000 </r>
       <r>  -20.5899    1.0000 </r>
       <r>  -20.5845    1.0000 </r>
       <r>  -20.5460    1.0000 </r>
       <r>  -20.5428    1.0000 </r>
       <r>  -18.2664    1.0000 </r>
       <r>  -18.2628    1.0000 </r>
       <r>  -18.1728    1.0000 </r>
       <r>  -18.1591    1.0000 </r>
       <r>  -18.1119    1.0000 </r>
       <r>  -18.0401    1.0000 </r>
       <r>  -18.0296    1.0000 </r>
       <r>  -17.5494    1.0000 </r>
       <r>  -17.4908    1.0000 </r>
       <r>  -17.3857    1.0000 </r>
       <r>  -17.0281    1.0000 </r>
       <r>  -17.0109    1.0000 </r>
       <r>  -16.9576    1.0000 </r>
       <r>  -16.8272    1.0000 </r>
       <r>  -16.6609    1.0000 </r>
       <r>  -16.6141    1.0000 </r>
       <r>  -16.5887    1.0000 </r>
       <r>  -16.5526    1.0000 </r>
       <r>  -16.3809    1.0000 </r>
       <r>  -16.3036    1.0000 </r>
       <r>  -15.9812    1.0000 </r>
       <r>  -15.9726    1.0000 </r>
       <r>  -15.9165    1.0000 </r>
       <r>  -15.6175    1.0000 </r>
       <r>  -15.5965    1.0000 </r>
       <r>  -15.5526    1.0000 </r>
       <r>  -15.4207    1.0000 </r>
       <r>  -15.3231    1.0000 </r>
       <r>  -15.2311    1.0000 </r>
       <r>  -15.2067    1.0000 </r>
       <r>  -14.2544    1.0000 </r>
       <r>  -14.2451    1.0000 </r>
       <r>  -14.1453    1.0000 </r>
       <r>  -14.0045    1.0000 </r>
       <r>  -13.9613    1.0000 </r>
       <r>  -13.8877    1.0000 </r>
       <r>  -13.8353    1.0000 </r>
       <r>  -13.7707    1.0000 </r>
       <r>  -13.7493    1.0000 </r>
       <r>  -13.7232    1.0000 </r>
       <r>  -13.6878    1.0000 </r>
       <r>  -13.6367    1.0000 </r>
       <r>  -13.0112    1.0000 </r>
       <r>  -12.9680    1.0000 </r>
       <r>  -12.9125    1.0000 </r>
       <r>  -12.8942    1.0000 </r>
       <r>  -12.7299    1.0000 </r>
       <r>  -12.7117    1.0000 </r>
       <r>  -12.6740    1.0000 </r>
       <r>  -12.6189    1.0000 </r>
       <r>  -12.6099    1.0000 </r>
       <r>  -12.5215    1.0000 </r>
       <r>  -12.5146    1.0000 </r>
       <r>  -12.4893    1.0000 </r>
       <r>  -12.2364    1.0000 </r>
       <r>  -12.2079    1.0000 </r>
       <r>  -12.0727    1.0000 </r>
       <r>  -12.0519    1.0000 </r>
       <r>  -12.0236    1.0000 </r>
       <r>  -11.8668    1.0000 </r>
       <r>  -11.8574    1.0000 </r>
       <r>  -11.6227    1.0000 </r>
       <r>  -11.6199    1.0000 </r>
       <r>  -11.6117    1.0000 </r>
       <r>  -11.3460    1.0000 </r>
       <r>  -11.3222    1.0000 </r>
       <r>  -11.2683    1.0000 </r>
       <r>  -11.1331    1.0000 </r>
       <r>  -11.0834    1.0000 </r>
       <r>  -11.0821    1.0000 </r>
       <r>  -10.9473    1.0000 </r>
       <r>  -10.8359    1.0000 </r>
       <r>  -10.8345    1.0000 </r>
       <r>  -10.8161    1.0000 </r>
       <r>  -10.8090    1.0000 </r>
       <r>  -10.7901    1.0000 </r>
       <r>  -10.7844    1.0000 </r>
       <r>  -10.6841    1.0000 </r>
       <r>  -10.6375    1.0000 </r>
       <r>  -10.6339    1.0000 </r>
       <r>  -10.5631    1.0000 </r>
       <r>  -10.4928    1.0000 </r>
       <r>  -10.4900    1.0000 </r>
       <r>  -10.3851    1.0000 </r>
       <r>  -10.3639    1.0000 </r>
       <r>  -10.3336    1.0000 </r>
       <r>  -10.2641    1.0000 </r>
       <r>  -10.2473    1.0000 </r>
       <r>  -10.1237    1.0000 </r>
       <r>  -10.0856    1.0000 </r>
       <r>  -10.0559    1.0000 </r>
       <r>  -10.0052    1.0000 </r>
       <r>   -9.9314    1.0000 </r>
       <r>   -9.9155    1.0000 </r>
       <r>   -9.8296    1.0000 </r>
       <r>   -9.8045    1.0000 </r>
       <r>   -9.3260    1.0000 </r>
       <r>   -9.3174    1.0000 </r>
       <r>   -9.2915    1.0000 </r>
       <r>   -9.2698    1.0000 </r>
       <r>   -9.2216    1.0000 </r>
       <r>   -9.2079    1.0000 </r>
       <r>   -8.8925    1.0000 </r>
       <r>   -8.8915    1.0000 </r>
       <r>   -8.8821    1.0000 </r>
       <r>   -8.8695    1.0000 </r>
       <r>   -8.7626    1.0000 </r>
       <r>   -8.6417    1.0000 </r>
       <r>   -8.6322    1.0000 </r>
       <r>   -8.5201    1.0000 </r>
       <r>   -8.5073    1.0000 </r>
       <r>   -8.3998    1.0000 </r>
       <r>   -8.3964    1.0000 </r>
       <r>   -8.3795    1.0000 </r>
       <r>   -7.8803    1.0000 </r>
       <r>   -7.8579    1.0000 </r>
       <r>   -7.8543    1.0000 </r>
       <r>   -7.8264    1.0000 </r>
       <r>   -7.8184    1.0000 </r>
       <r>   -7.8127    1.0000 </r>
       <r>   -7.8078    1.0000 </r>
       <r>   -7.7701    1.0000 </r>
       <r>   -7.7276    1.0000 </r>
       <r>   -7.7139    1.0000 </r>
       <r>   -7.7046    1.0000 </r>
       <r>   -7.6436    1.0000 </r>
       <r>   -7.6406    1.0000 </r>
       <r>   -7.6275    1.0000 </r>
       <r>   -7.6216    1.0000 </r>
       <r>   -7.6043    1.0000 </r>
       <r>   -7.5999    1.0000 </r>
       <r>   -7.5046    1.0000 </r>
       <r>   -7.1971    1.0000 </r>
       <r>   -7.1824    1.0000 </r>
       <r>   -7.0061    1.0000 </r>
       <r>   -6.9841    1.0000 </r>
       <r>   -6.9631    1.0000 </r>
       <r>   -6.9116    1.0000 </r>
       <r>   -6.8720    1.0000 </r>
       <r>   -6.8478    1.0000 </r>
       <r>   -6.8393    1.0000 </r>
       <r>   -6.5248    1.0000 </r>
       <r>   -6.5071    1.0000 </r>
       <r>   -6.5031    1.0000 </r>
       <r>   -6.4538    1.0000 </r>
       <r>   -6.4372    1.0000 </r>
       <r>   -6.4270    1.0000 </r>
       <r>   -6.2845    1.0000 </r>
       <r>   -6.2764    1.0000 </r>
       <r>   -6.2512    1.0000 </r>
       <r>   -6.2417    1.0000 </r>
       <r>   -6.2207    1.0000 </r>
       <r>   -6.2175    1.0000 </r>
       <r>   -5.2754    1.0000 </r>
       <r>   -5.2709    1.0000 </r>
       <r>   -5.2278    1.0000 </r>
       <r>   -5.2085    1.0000 </r>
       <r>   -5.2012    1.0000 </r>
       <r>   -5.1892    1.0000 </r>
       <r>   -5.1618    1.0000 </r>
       <r>   -5.1054    1.0000 </r>
       <r>   -5.0972    1.0000 </r>
       <r>   -3.6985    0.0000 </r>
       <r>   -3.6654    0.0000 </r>
       <r>   -3.6603    0.0000 </r>
       <r>   -3.3626    0.0000 </r>
       <r>   -3.3556    0.0000 </r>
       <r>   -3.3026    0.0000 </r>
       <r>   -3.2979    0.0000 </r>
       <r>   -2.9177    0.0000 </r>
       <r>   -2.8802    0.0000 </r>
       <r>   -2.7597    0.0000 </r>
       <r>   -2.6907    0.0000 </r>
       <r>   -2.6332    0.0000 </r>
       <r>   -2.5050    0.0000 </r>
       <r>   -2.4925    0.0000 </r>
       <r>   -2.4728    0.0000 </r>
       <r>   -2.4175    0.0000 </r>
       <r>   -2.3926    0.0000 </r>
[...]
       <r>   -22.8130    81.7280    50.6025 </r>
       <r>   -22.7134    13.3860    54.0000 </r>
       <r>   -22.6139     0.0000    54.0000 </r>
       <r>   -22.5143     0.0000    54.0000 </r>
       <r>   -22.4148     0.0000    54.0000 </r>
       <r>   -22.3153     0.0000    54.0000 </r>
       <r>   -22.2157     0.0000    54.0000 </r>
       <r>   -22.1162     0.0000    54.0000 </r>
       <r>   -22.0166     0.0000    54.0000 </r>
       <r>   -21.9171     0.0000    54.0000 </r>
       <r>   -21.8175     0.0000    54.0000 </r>
       <r>   -21.7180     0.0000    54.0000 </r>
       <r>   -21.6184     0.0000    54.0000 </r>
       <r>   -21.5189     0.0000    54.0000 </r>
       <r>   -21.4193     0.0000    54.0000 </r>
       <r>   -21.3198     0.0000    54.0000 </r>
       <r>   -21.2202     0.0000    54.0000 </r>
       <r>   -21.1207     0.0000    54.0000 </r>
       <r>   -21.0212     0.0000    54.0000 </r>
       <r>   -20.9216    39.8761    57.9695 </r>
       <r>   -20.8221    60.2658    63.9994 </r>
       <r>   -20.7225    55.7113    69.5459 </r>
       <r>   -20.6230    93.6124    81.3190 </r>
       <r>   -20.5234    67.5720    89.9935 </r>
       <r>   -20.4239     0.0000    90.0000 </r>
       <r>   -20.3243     0.0000    90.0000 </r>
       <r>   -20.2248     0.0000    90.0000 </r>
       <r>   -20.1252     0.0000    90.0000 </r>
       <r>   -20.0257     0.0000    90.0000 </r>
       <r>   -19.9262     0.0000    90.0000 </r>
       <r>   -19.8266     0.0000    90.0000 </r>
       <r>   -19.7271     0.0000    90.0000 </r>
       <r>   -19.6275     0.0000    90.0000 </r>
       <r>   -19.5280     0.0000    90.0000 </r>
       <r>   -19.4284     0.0000    90.0000 </r>
       <r>   -19.3289     0.0000    90.0000 </r>
       <r>   -19.2293     0.0000    90.0000 </r>
       <r>   -19.1298     0.0000    90.0000 </r>
       <r>   -19.0302     0.0000    90.0000 </r>
       <r>   -18.9307     0.0000    90.0000 </r>
       <r>   -18.8312     0.0000    90.0000 </r>
       <r>   -18.7316     0.0000    90.0000 </r>
       <r>   -18.6321     0.0000    90.0000 </r>
       <r>   -18.5325     0.0000    90.0000 </r>
       <r>   -18.4330     0.0000    90.0000 </r>
       <r>   -18.3334     0.0000    90.0000 </r>
       <r>   -18.2339    37.0924    93.6924 </r>
       <r>   -18.1343    30.7820    97.9982 </r>
       <r>   -18.0348    40.1434   101.9963 </r>
       <r>   -17.9352    14.7321   104.0000 </r>
       <r>   -17.8357     0.0000   104.0000 </r>
       <r>   -17.7362     0.0000   104.0000 </r>
       <r>   -17.6366     0.0000   104.0000 </r>
       <r>   -17.5371     9.9007   104.9856 </r>
       <r>   -17.4375    12.7202   108.0000 </r>
       <r>   -17.3380    18.3397   109.8256 </r>
       <r>   -17.2384     0.0000   110.0000 </r>
       <r>   -17.1389     0.0031   110.0003 </r>
       <r>   -17.0393    25.9896   112.5875 </r>
       <r>   -16.9398    10.0345   114.3990 </r>
       <r>   -16.8402     9.7480   115.5370 </r>
       <r>   -16.7407    15.0472   117.7980 </r>
       <r>   -16.6412    33.9440   121.3790 </r>
       <r>   -16.5416    41.8364   125.8981 </r>
       <r>   -16.4421     0.0000   126.0000 </r>
       <r>   -16.3425    24.7926   128.4680 </r>
       <r>   -16.2430     7.7001   130.0000 </r>
       <r>   -16.1434     0.0000   130.0000 </r>
       <r>   -16.0439     0.0000   130.0000 </r>
       <r>   -15.9443    42.8204   134.2626 </r>
       <r>   -15.8448     5.6901   136.0000 </r>
       <r>   -15.7452     0.0000   136.0000 </r>
       <r>   -15.6457     8.8571   136.8817 </r>
       <r>   -15.5461    19.6501   139.6230 </r>
       <r>   -15.4466    15.3806   142.6654 </r>
       <r>   -15.3471     6.4942   144.0135 </r>
       <r>   -15.2475    31.7111   147.5570 </r>
       <r>   -15.1480    20.0913   150.0000 </r>
       <r>   -15.0484     0.0000   150.0000 </r>
       <r>   -14.9489     0.0000   150.0000 </r>
       <r>   -14.8493     0.0000   150.0000 </r>
       <r>   -14.7498     0.0000   150.0000 </r>
       <r>   -14.6502     0.0000   150.0000 </r>
       <r>   -14.5507     0.0000   150.0000 </r>
       <r>   -14.4511     0.0000   150.0000 </r>
       <r>   -14.3516     0.0000   150.0000 </r>
       <r>   -14.2521    19.6676   151.9578 </r>
       <r>   -14.1525    25.4104   154.7964 </r>
       <r>   -14.0530     0.0000   156.0000 </r>
       <r>   -13.9534    30.4194   159.0281 </r>
       <r>   -13.8539    17.0870   162.0011 </r>
       <r>   -13.7543    41.5023   166.3316 </r>
       <r>   -13.6548    49.8135   172.9587 </r>
       <r>   -13.5552     0.0000   174.0000 </r>
       <r>   -13.4557     0.0000   174.0000 </r>
       <r>   -13.3561     0.0000   174.0000 </r>
       <r>   -13.2566     0.0000   174.0000 </r>
       <r>   -13.1571     0.0000   174.0000 </r>
       <r>   -13.0575     0.0000   174.0000 </r>
       <r>   -12.9580    39.7753   177.9595 </r>
       <r>   -12.8584    28.4309   180.8302 </r>
       <r>   -12.7589    21.9081   183.2809 </r>
       <r>   -12.6593    44.8259   187.9957 </r>
       <r>   -12.5598    40.3881   192.0205 </r>
       <r>   -12.4602    37.2952   196.3463 </r>
       <r>   -12.3607     5.9449   197.0918 </r>
       <r>   -12.2611    13.5841   199.3522 </r>
       <r>   -12.1616    32.1826   203.2039 </r>
       <r>   -12.0621     6.0375   204.0010 </r>
       <r>   -11.9625    24.3345   206.6892 </r>
       <r>   -11.8630    39.7792   210.8266 </r>
       <r>   -11.7634     0.0000   212.0000 </r>
       <r>   -11.6639     0.0000   212.0000 </r>
       <r>   -11.5643    60.2739   218.0000 </r>
       <r>   -11.4648     0.0000   218.0000 </r>
       <r>   -11.3652     0.0165   218.0016 </r>
       <r>   -11.2657    40.5449   222.2703 </r>
       <r>   -11.1661    24.9236   225.2811 </r>
       <r>   -11.0666    29.0063   228.4542 </r>
       <r>   -10.9671    25.7929   231.3677 </r>
       <r>   -10.8675     1.3361   232.0000 </r>
       <r>   -10.7680   107.8646   242.7375 </r>
       <r>   -10.6684    24.0706   245.9963 </r>
       <r>   -10.5689    56.9527   251.6694 </r>
       <r>   -10.4693    26.5451   254.6424 </r>
       <r>   -10.3698    35.8545   258.6027 </r>
       <r>   -10.2702    37.9304   263.7758 </r>
       <r>   -10.1707    15.1102   265.5043 </r>
       <r>   -10.0711    30.9102   269.9105 </r>
       <r>    -9.9716    20.0913   274.0000 </r>
       <r>    -9.8720    40.1826   278.0000 </r>
       <r>    -9.7725    40.1825   282.0000 </r>
       <r>    -9.6730     0.0000   282.0000 </r>
       <r>    -9.5734     0.0000   282.0000 </r>
       <r>    -9.4739     0.0000   282.0000 </r>
       <r>    -9.3743     0.0000   282.0000 </r>
       <r>    -9.2748    61.3149   288.1036 </r>
       <r>    -9.1752    51.2299   294.0000 </r>
       <r>    -9.0757     0.0000   294.0000 </r>
       <r>    -8.9761     0.0000   294.0000 </r>
       <r>    -8.8766    51.5553   299.1321 </r>
       <r>    -8.7770    25.7209   303.5941 </r>
       <r>    -8.6775     0.0128   304.0013 </r>
       <r>    -8.5780    28.3719   306.8256 </r>
       <r>    -8.4784    48.8838   311.9997 </r>
       <r>    -8.3789    48.7657   316.8544 </r>
       <r>    -8.2793     0.0000   318.0000 </r>
       <r>    -8.1798     0.0000   318.0000 </r>
       <r>    -8.0802     0.0000   318.0000 </r>
       <r>    -7.9807     0.0000   318.0000 </r>
       <r>    -7.8811     3.4537   318.3438 </r>
       <r>    -7.7816   116.6907   332.0186 </r>
       <r>    -7.6820    74.3120   340.0310 </r>
       <r>    -7.5825    88.2511   350.0187 </r>
       <r>    -7.4830    30.1327   353.9997 </r>
       <r>    -7.3834     0.0000   354.0000 </r>
       <r>    -7.2839     0.0000   354.0000 </r>
       <r>    -7.1843    19.2207   355.9133 </r>
       <r>    -7.0848    22.4272   358.8993 </r>
       <r>    -6.9852    17.5882   360.9175 </r>
       <r>    -6.8857    40.5291   366.0347 </r>
       <r>    -6.7861    44.5287   372.0000 </r>
       <r>    -6.6866     0.0000   372.0000 </r>
       <r>    -6.5870     0.0000   372.0000 </r>
       <r>    -6.4875    59.9989   377.9726 </r>
       <r>    -6.3880    60.2737   384.0000 </r>
       <r>    -6.2884     6.6129   384.6583 </r>
       <r>    -6.1889    80.3647   395.9999 </r>
       <r>    -6.0893     0.0000   396.0000 </r>
       <r>    -5.9898     0.0000   396.0000 </r>
       <r>    -5.8902     0.0000   396.0000 </r>
       <r>    -5.7907     0.0000   396.0000 </r>
       <r>    -5.6911     0.0000   396.0000 </r>
       <r>    -5.5916     0.0000   396.0000 </r>
       <r>    -5.4920     0.0000   396.0000 </r>
       <r>    -5.3925     0.0000   396.0000 </r>
       <r>    -5.2930     0.1381   396.0137 </r>
       <r>    -5.1934    82.0672   406.1713 </r>
       <r>    -5.0939    52.5506   413.2312 </r>
       <r>    -4.9943     0.0000   414.0000 </r>
       <r>    -4.8948     0.0000   414.0000 </r>
       <r>    -4.7952     0.0000   414.0000 </r>
       <r>    -4.6957     0.0000   414.0000 </r>
       <r>    -4.5961     0.0000   414.0000 </r>
       <r>    -4.4966     0.0000   414.0000 </r>
       <r>    -4.3970     0.0000   414.0000 </r>
       <r>    -4.2975     0.0000   414.0000 </r>
       <r>    -4.1979     0.0000   414.0000 </r>
       <r>    -4.0984     0.0000   414.0000 </r>
       <r>    -3.9989     0.0000   414.0000 </r>
       <r>    -3.8993     0.0000   414.0000 </r>
       <r>    -3.7998     0.0000   414.0000 </r>
       <r>    -3.7002     3.0074   414.2994 </r>
       <r>    -3.6007    40.1790   420.0000 </r>
       <r>    -3.5011     0.0000   420.0000 </r>
       <r>    -3.4016     0.3283   420.0327 </r>
       <r>    -3.3020    47.2545   425.9376 </r>
       <r>    -3.2025    13.7249   428.0000 </r>
       <r>    -3.1029     0.0000   428.0000 </r>
       <r>    -3.0034     0.0000   428.0000 </r>
       <r>    -2.9039     5.9868   428.5960 </r>
       <r>    -2.8043    26.8171   432.0032 </r>
       <r>    -2.7048    32.1835   435.3708 </r>
       <r>    -2.6052    20.0912   438.0000 </r>
       <r>    -2.5057    10.6463   439.0598 </r>
       <r>    -2.4061    40.5017   446.0318 </r>
       <r>    -2.3066    18.7504   450.0000 </r>
       <r>    -2.2070     0.0000   450.0000 </r>
       <r>    -2.1075    25.9135   452.5796 </r>
       <r>    -2.0079    37.6065   456.5103 </r>
       <r>    -1.9084    19.9224   459.2835 </r>
       <r>    -1.8089     5.0222   460.0000 </r>
       <r>    -1.7093     0.0000   460.0000 </r>
       <r>    -1.6098     0.0000   460.0000 </r>
       <r>    -1.5102     0.0000   460.0000 </r>
       <r>    -1.4107     0.0000   460.0000 </r>
       <r>    -1.3111     0.0000   460.0000 </r>
       <r>    -1.2116     8.6977   460.8658 </r>
       <r>    -1.1120    32.1645   465.2690 </r>
       <r>    -1.0125    18.7489   468.0000 </r>
       <r>    -0.9129     0.0000   468.0000 </r>
       <r>    -0.8134     0.0102   468.0010 </r>
       <r>    -0.7139    50.5948   473.0375 </r>
       <r>    -0.6143     0.0000   474.0000 </r>
       <r>    -0.5148     6.5407   474.6511 </r>
       <r>    -0.4152    10.3779   478.0000 </r>
       <r>    -0.3157    27.1303   480.7007 </r>
       <r>    -0.2161    19.1213   482.7369 </r>
       <r>    -0.1166    10.5035   484.0124 </r>
       <r>    -0.0170    12.0527   486.0002 </r>
       <r>     0.0825    20.0963   488.0007 </r>
       <r>     0.1821    25.3798   490.5933 </r>
       <r>     0.2816     8.9922   492.8951 </r>
       <r>     0.3811    25.5418   496.0760 </r>
       <r>     0.4807    46.3224   501.5789 </r>
       <r>     0.5802    50.4315   507.6538 </r>
       <r>     0.6798    49.6731   514.1119 </r>
       <r>     0.7793    84.9491   524.0906 </r>
       <r>     0.8789    70.7710   532.3122 </r>
       <r>     0.9784    76.2421   541.7905 </r>
       <r>     1.0780     4.0171   544.0000 </r>
       <r>     1.1775     0.0000   544.0000 </r>
       <r>     1.2771     0.0000   544.0000 </r>
       <r>     1.3766     0.0000   544.0000 </r>
       <r>     1.4762     0.0000   544.0000 </r>
       <r>     1.5757     0.0000   544.0000 </r>
       <r>     1.6752     0.0000   544.0000 </r>
       <r>     1.7748     0.0000   544.0000 </r>
       <r>     1.8743     0.0000   544.0000 </r>
       <r>     1.9739     0.0000   544.0000 </r>
       <r>     2.0734     0.0000   544.0000 </r>
       <r>     2.1730     0.0000   544.0000 </r>
       <r>     2.2725     0.0000   544.0000 </r>
       <r>     2.3721     0.0000   544.0000 </r>
      </set>
     </set>
    </array>
   </total>
  </dos>
 </calculation>
 <structure name="finalpos" >
  <crystal>
   <varray name="basis" >
    <v>      29.00868369       0.00218930       0.00000000 </v>
    <v>     -14.50244458      25.11420973       0.00000000 </v>
    <v>       0.00000000       0.00000000      20.00000000 </v>
   </varray>
   <i name="volume">  14571.23832720 </i>
   <varray name="rec_basis" >
    <v>       0.03447093       0.01990558       0.00000000 </v>
    <v>      -0.00000300       0.03981636       0.00000000 </v>
    <v>       0.00000000       0.00000000       0.05000000 </v>
   </varray>
  </crystal>
  <varray name="positions" >
   <v>       0.47372780       0.03415382       0.54974366 </v>
   <v>       0.52909496       0.05977182       0.54092405 </v>
   <v>       0.56019327       0.11797050       0.52712786 </v>
   <v>       0.63596985       0.19032915       0.49339966 </v>
   <v>       0.55867870       0.19160965       0.49314854 </v>
   <v>       0.56031569       0.37739137       0.49278894 </v>
   <v>       0.56346631       0.45265735       0.52831803 </v>
   <v>       0.63871370       0.45467081       0.49389316 </v>
   <v>       0.82216566       0.45166100       0.49433052 </v>
   <v>       0.89500037       0.44851250       0.52780533 </v>
   <v>       0.82204593       0.37369710       0.49310021 </v>
   <v>       0.37403097       0.82187076       0.49272647 </v>
   <v>       0.44910830       0.89544038       0.52700711 </v>
   <v>       0.45242047       0.82293129       0.49363755 </v>
   <v>       0.45372246       0.63879042       0.49590618 </v>
   <v>       0.45197142       0.56345120       0.52944177 </v>
   <v>       0.37636930       0.56023012       0.49529768 </v>
   <v>       0.19050622       0.55802348       0.49323429 </v>
   <v>       0.11745707       0.55997895       0.52742184 </v>
   <v>       0.19015789       0.63576443       0.49307479 </v>
   <v>       0.53631217       0.31880411       0.48616779 </v>
   <v>       0.50723953       0.28297924       0.53704701 </v>
   <v>       0.50705324       0.23473410       0.53738202 </v>
   <v>       0.53554600       0.22699091       0.48660425 </v>
   <v>       0.78769765       0.47585986       0.48866178 </v>
   <v>       0.78018119       0.50350919       0.54073552 </v>
   <v>       0.73251744       0.50441054       0.54057212 </v>
   <v>       0.69721508       0.47762567       0.48830757 </v>
   <v>       0.69460858       0.22458049       0.48677327 </v>
   <v>       0.73063004       0.23122656       0.53733950 </v>
   <v>       0.77915998       0.27900097       0.53716691 </v>
   <v>       0.78672101       0.31522878       0.48644955 </v>
   <v>       0.47705956       0.69729824       0.48927120 </v>
   <v>       0.50512350       0.73345807       0.54028431 </v>
   <v>       0.50506266       0.78157321       0.53952307 </v>
   <v>       0.47659437       0.78843869       0.48795397 </v>
   <v>       0.22580814       0.53480087       0.48703660 </v>
   <v>       0.23291321       0.50576632       0.53766542 </v>
   <v>       0.28134847       0.50630911       0.53818136 </v>
   <v>       0.31776766       0.53591288       0.48808651 </v>
   <v>       0.31552162       0.78642430       0.48659590 </v>
   <v>       0.27997545       0.77827314       0.53842329 </v>
   <v>       0.23214858       0.72985294       0.53854154 </v>
   <v>       0.22467696       0.69441623       0.48683081 </v>
   <v>       0.47614457       0.95361742       0.54083259 </v>
   <v>       0.44628218       0.97912069       0.54971389 </v>
   <v>       0.48306840       0.53639540       0.54344300 </v>
   <v>       0.53841136       0.56626937       0.55246601 </v>
   <v>       0.56601720       0.53885854       0.55219539 </v>
   <v>       0.53630915       0.48352697       0.54290985 </v>
   <v>       0.05927897       0.53224250       0.54142701 </v>
   <v>       0.03368071       0.56157567       0.55395926 </v>
   <v>       0.97868289       0.53400044       0.55403323 </v>
   <v>       0.95317472       0.47904548       0.54161203 </v>
   <v>       0.55621032       0.03309041       0.53930992 </v>
   <v>       0.61333770       0.14137137       0.51996889 </v>
   <v>       0.53142058       0.14259955       0.51942045 </v>
   <v>       0.60997016       0.21571827       0.47494353 </v>
   <v>       0.53384174       0.39960071       0.52004056 </v>
   <v>       0.61692750       0.48150059       0.52123729 </v>
   <v>       0.61167121       0.40370982       0.47425030 </v>
   <v>       0.87095188       0.47793946       0.52124955 </v>
   <v>       0.87096830       0.39540168       0.51964387 </v>
   <v>       0.79747891       0.40062700       0.47500457 </v>
   <v>       0.39574064       0.87086318       0.51897787 </v>
   <v>       0.47871640       0.87182484       0.52029822 </v>
   <v>       0.40113961       0.79765206       0.47468426 </v>
   <v>       0.48082089       0.61691050       0.52221747 </v>
   <v>       0.39889526       0.53369282       0.52153090 </v>
   <v>       0.40246473       0.61178105       0.47755341 </v>
   <v>       0.14166327       0.53101141       0.52000149 </v>
   <v>       0.14134999       0.61337337       0.51996001 </v>
   <v>       0.21494552       0.60936290       0.47443918 </v>
   <v>       0.52993135       0.98040164       0.53922912 </v>
   <v>       0.48251794       0.45633644       0.54156856 </v>
   <v>       0.45608753       0.48259699       0.54184246 </v>
   <v>       0.97990488       0.45214957       0.53616942 </v>
   <v>       0.03261325       0.47860337       0.53606717 </v>
   <v>       0.55121888       0.25770113       0.43070576 </v>
   <v>       0.55181137       0.30322441       0.43065254 </v>
   <v>       0.71295708       0.46315918       0.43204916 </v>
   <v>       0.75771538       0.46223864       0.43224046 </v>
   <v>       0.75568199       0.30032921       0.43088703 </v>
   <v>       0.71013811       0.25549090       0.43106584 </v>
   <v>       0.46173288       0.75746740       0.43236613 </v>
   <v>       0.46205103       0.71241436       0.43287520 </v>
   <v>       0.30266817       0.55165499       0.43229763 </v>
   <v>       0.25720232       0.55106791       0.43176132 </v>
   <v>       0.25492214       0.71048856       0.43060164 </v>
   <v>       0.29988726       0.75601859       0.43048816 </v>
   <v>       0.45388092       0.05748301       0.55402858 </v>
   <v>       0.48864652       0.20578794       0.57761140 </v>
   <v>       0.48884237       0.29410141       0.57667039 </v>
   <v>       0.72138090       0.52182231       0.58138817 </v>
   <v>       0.80870802       0.52027535       0.58166463 </v>
   <v>       0.80853597       0.28943016       0.57681825 </v>
   <v>       0.71960416       0.20182415       0.57709323 </v>
   <v>       0.52313496       0.81104291       0.57925584 </v>
   <v>       0.52310263       0.72282823       0.58093972 </v>
   <v>       0.29203380       0.48765404       0.57794122 </v>
   <v>       0.20326309       0.48666590       0.57699881 </v>
   <v>       0.20345662       0.71836328       0.57925164 </v>
   <v>       0.29101319       0.80699676       0.57902194 </v>
   <v>       0.40311740       0.95571997       0.55402827 </v>
   <v>       0.60917998       0.55872597       0.55658066 </v>
   <v>       0.55812615       0.60941603       0.55704232 </v>
   <v>       0.95527889       0.55353442       0.56101745 </v>
   <v>       0.05697669       0.60452688       0.56087540 </v>
  </varray>
 </structure>
</modeling>
