<?xml version="1.0" encoding="ISO-8859-1"?>
<modeling>
 <generator>
  <i name="program" type="string">vasp </i>
  <i name="version" type="string">5.4.4.18Apr17-6-g9f103f2a35  </i>
  <i name="subversion" type="string">(build Jun 07 2020 16:50:00) complex            parallel </i>
  <i name="platform" type="string">LinuxIFC </i>
  <i name="date" type="string">2023 02 27 </i>
  <i name="time" type="string">21:19:02 </i>
 </generator>
 <incar>
  <i type="string" name="SYSTEM">Simulation for cell shape cell volume r</i>
  <i type="int" name="ISTART">     1</i>
  <i type="string" name="PREC">high</i>
  <i type="string" name="ALGO">48</i>
  <i type="int" name="ICHARG">    11</i>
  <i type="int" name="NELM">   200</i>
  <i type="int" name="IBRION">    -1</i>
  <i name="EDIFF">      0.00001000</i>
  <i name="EDIFFG">     -0.01000000</i>
  <i type="int" name="NSW">     0</i>
  <i type="int" name="ISIF">     2</i>
  <i name="ENCUT">    500.00000000</i>
  <i name="POTIM">      0.30000000</i>
  <i type="string" name="LREAL">A</i>
  <i type="int" name="ISMEAR">     0</i>
  <i name="SIGMA">      0.01000000</i>
  <i type="int" name="NWRITE">     0</i>
  <i type="logical" name="LWAVE"> F  </i>
  <i type="logical" name="LCHARG"> F  </i>
  <v type="int" name="KPOINT_BSE">    -1     0     0     0</v>
  <i type="int" name="NELM">   200</i>
  <i type="string" name="GGA">PE</i>
 </incar>
 <structure name="primitive_cell" >
  <crystal>
   <varray name="basis" >
    <v>      14.92043461      -0.01764367       0.00000000 </v>
    <v>       7.44493744      12.93029725       0.00000000 </v>
    <v>       0.00000000       0.00000000      20.00000000 </v>
   </varray>
   <i name="volume">   3861.14021229 </i>
   <varray name="rec_basis" >
    <v>       0.06697657      -0.03856341       0.00000000 </v>
    <v>       0.00009139       0.07728512       0.00000000 </v>
    <v>       0.00000000       0.00000000       0.05000000 </v>
   </varray>
  </crystal>
  <varray name="positions" >
   <v>      -0.41650440      -0.25346723      -0.48477815 </v>
   <v>      -0.47006491      -0.30843241      -0.48476469 </v>
   <v>      -0.30819676      -0.30819676      -0.48496284 </v>
   <v>      -0.47421422      -0.13827795      -0.48421989 </v>
   <v>       0.44558588      -0.26630394      -0.48469980 </v>
   <v>      -0.26594122      -0.26594122      -0.48495513 </v>
   <v>      -0.25346723      -0.41650440      -0.48477815 </v>
   <v>      -0.41673268      -0.41673268      -0.48484938 </v>
   <v>       0.49630107      -0.08518570      -0.42342586 </v>
   <v>      -0.49976289      -0.08213527       0.45581906 </v>
   <v>      -0.48378130      -0.12916568      -0.37680024 </v>
   <v>      -0.47724778      -0.12284875       0.40812213 </v>
   <v>      -0.30843241      -0.47006491      -0.48476469 </v>
   <v>       0.44590545       0.02566966       0.45784309 </v>
   <v>      -0.47443809      -0.47443809      -0.48465597 </v>
   <v>      -0.13827795      -0.47421422      -0.48421989 </v>
   <v>       0.44142444       0.02344618      -0.42102294 </v>
   <v>      -0.26630394       0.44558588      -0.48469980 </v>
   <v>       0.41584617       0.07974169      -0.48164243 </v>
   <v>      -0.47918916      -0.47918916      -0.37720896 </v>
   <v>      -0.12916568      -0.48378130      -0.37680024 </v>
   <v>      -0.12284875      -0.47724778       0.40812213 </v>
   <v>      -0.48182076      -0.48182076       0.40756980 </v>
   <v>       0.49887529       0.49887529      -0.42392410 </v>
   <v>      -0.08518570       0.49630107      -0.42342586 </v>
   <v>      -0.08213527      -0.49976289       0.45581906 </v>
   <v>       0.49764103       0.49764103       0.45518501 </v>
   <v>       0.42587652       0.06981969       0.41135599 </v>
   <v>       0.40920137       0.07470623      -0.35998335 </v>
   <v>       0.45010514       0.03477505      -0.31929709 </v>
   <v>       0.39141125       0.14978176      -0.36003678 </v>
   <v>       0.35828528       0.19491792      -0.48074020 </v>
   <v>       0.02566966       0.44590545       0.45784309 </v>
   <v>       0.44360485       0.44360485       0.45702508 </v>
   <v>       0.44439288       0.44439288      -0.42170479 </v>
   <v>       0.02344618       0.44142444      -0.42102294 </v>
   <v>       0.49610699       0.20805552      -0.48180010 </v>
   <v>       0.20764584       0.20764584      -0.47920511 </v>
   <v>       0.41632796       0.41632796      -0.48258520 </v>
   <v>       0.07974169       0.41584617      -0.48164243 </v>
   <v>       0.41174502       0.25016208      -0.48104638 </v>
   <v>       0.24989221       0.24989221      -0.47982540 </v>
   <v>       0.06981969       0.42587652       0.41135599 </v>
   <v>       0.42160000       0.42160000       0.41041717 </v>
   <v>       0.03477505       0.45010514      -0.31929709 </v>
   <v>       0.43852156       0.43852156      -0.31780548 </v>
   <v>       0.41873749       0.41873749      -0.36125862 </v>
   <v>       0.07470623       0.40920137      -0.35998335 </v>
   <v>       0.14978176       0.39141125      -0.36003678 </v>
   <v>       0.37968715       0.37968715      -0.35984945 </v>
   <v>       0.35862801       0.35862801      -0.48158090 </v>
   <v>       0.19491792       0.35828528      -0.48074020 </v>
   <v>       0.20805552       0.49610699      -0.48180010 </v>
   <v>       0.25016208       0.41174502      -0.48104638 </v>
  </varray>
 </structure>
 <varray name="primitive_index" >
  <v type="int" >        1 </v>
  <v type="int" >        7 </v>
  <v type="int" >        4 </v>
  <v type="int" >        2 </v>
  <v type="int" >       34 </v>
  <v type="int" >       35 </v>
  <v type="int" >        5 </v>
  <v type="int" >        6 </v>
  <v type="int" >        3 </v>
  <v type="int" >       13 </v>
  <v type="int" >       36 </v>
  <v type="int" >       40 </v>
  <v type="int" >        8 </v>
  <v type="int" >       30 </v>
  <v type="int" >        9 </v>
  <v type="int" >       11 </v>
  <v type="int" >       28 </v>
  <v type="int" >       43 </v>
  <v type="int" >       29 </v>
  <v type="int" >       38 </v>
  <v type="int" >       39 </v>
  <v type="int" >       42 </v>
  <v type="int" >       41 </v>
  <v type="int" >       10 </v>
  <v type="int" >       12 </v>
  <v type="int" >       15 </v>
  <v type="int" >       14 </v>
  <v type="int" >       54 </v>
  <v type="int" >       33 </v>
  <v type="int" >       52 </v>
  <v type="int" >       53 </v>
  <v type="int" >       23 </v>
  <v type="int" >       22 </v>
  <v type="int" >       21 </v>
  <v type="int" >       17 </v>
  <v type="int" >       19 </v>
  <v type="int" >       48 </v>
  <v type="int" >       49 </v>
  <v type="int" >       18 </v>
  <v type="int" >       20 </v>
  <v type="int" >       27 </v>
  <v type="int" >       24 </v>
  <v type="int" >       47 </v>
  <v type="int" >       46 </v>
  <v type="int" >       45 </v>
  <v type="int" >       44 </v>
  <v type="int" >       31 </v>
  <v type="int" >       32 </v>
  <v type="int" >       51 </v>
  <v type="int" >       50 </v>
  <v type="int" >       26 </v>
  <v type="int" >       25 </v>
  <v type="int" >       37 </v>
  <v type="int" >       16 </v>
 </varray>
 <kpoints>
  <generation param="listgenerated">
   <i name="divisions" type="int">      20 </i>
   <v>       0.00000000       0.00000000       0.00000000 </v>
   <v>       0.50000000       0.50000000       0.00000000 </v>
   <v>       0.33333333       0.66666667       0.00000000 </v>
   <v>       0.00000000       0.00000000       0.00000000 </v>
  </generation>
  <varray name="kpointlist" >
   <v>       0.00000000       0.00000000       0.00000000 </v>
   <v>       0.02631579       0.02631579       0.00000000 </v>
   <v>       0.05263158       0.05263158       0.00000000 </v>
   <v>       0.07894737       0.07894737       0.00000000 </v>
   <v>       0.10526316       0.10526316       0.00000000 </v>
   <v>       0.13157895       0.13157895       0.00000000 </v>
   <v>       0.15789474       0.15789474       0.00000000 </v>
   <v>       0.18421053       0.18421053       0.00000000 </v>
   <v>       0.21052632       0.21052632       0.00000000 </v>
   <v>       0.23684211       0.23684211       0.00000000 </v>
   <v>       0.26315789       0.26315789       0.00000000 </v>
   <v>       0.28947368       0.28947368       0.00000000 </v>
   <v>       0.31578947       0.31578947       0.00000000 </v>
   <v>       0.34210526       0.34210526       0.00000000 </v>
   <v>       0.36842105       0.36842105       0.00000000 </v>
   <v>       0.39473684       0.39473684       0.00000000 </v>
   <v>       0.42105263       0.42105263       0.00000000 </v>
   <v>       0.44736842       0.44736842       0.00000000 </v>
   <v>       0.47368421       0.47368421       0.00000000 </v>
   <v>       0.50000000       0.50000000       0.00000000 </v>
   <v>       0.50000000       0.50000000       0.00000000 </v>
   <v>       0.49122807       0.50877193       0.00000000 </v>
   <v>       0.48245614       0.51754386       0.00000000 </v>
   <v>       0.47368421       0.52631579       0.00000000 </v>
   <v>       0.46491228       0.53508772       0.00000000 </v>
   <v>       0.45614035       0.54385965       0.00000000 </v>
   <v>       0.44736842       0.55263158       0.00000000 </v>
   <v>       0.43859649       0.56140351       0.00000000 </v>
   <v>       0.42982456       0.57017544       0.00000000 </v>
   <v>       0.42105263       0.57894737       0.00000000 </v>
   <v>       0.41228070       0.58771930       0.00000000 </v>
   <v>       0.40350877       0.59649123       0.00000000 </v>
   <v>       0.39473684       0.60526316       0.00000000 </v>
   <v>       0.38596491       0.61403509       0.00000000 </v>
   <v>       0.37719298       0.62280702       0.00000000 </v>
   <v>       0.36842105       0.63157895       0.00000000 </v>
   <v>       0.35964912       0.64035088       0.00000000 </v>
   <v>       0.35087719       0.64912281       0.00000000 </v>
   <v>       0.34210526       0.65789474       0.00000000 </v>
   <v>       0.33333333       0.66666667       0.00000000 </v>
   <v>       0.33333333       0.66666667       0.00000000 </v>
   <v>       0.31578947       0.63157895       0.00000000 </v>
   <v>       0.29824561       0.59649123       0.00000000 </v>
   <v>       0.28070175       0.56140351       0.00000000 </v>
   <v>       0.26315789       0.52631579       0.00000000 </v>
   <v>       0.24561404       0.49122807       0.00000000 </v>
   <v>       0.22807018       0.45614035       0.00000000 </v>
   <v>       0.21052632       0.42105263       0.00000000 </v>
   <v>       0.19298246       0.38596491       0.00000000 </v>
   <v>       0.17543860       0.35087719       0.00000000 </v>
   <v>       0.15789474       0.31578947       0.00000000 </v>
   <v>       0.14035088       0.28070175       0.00000000 </v>
   <v>       0.12280702       0.24561404       0.00000000 </v>
   <v>       0.10526316       0.21052632       0.00000000 </v>
   <v>       0.08771930       0.17543860       0.00000000 </v>
   <v>       0.07017544       0.14035088       0.00000000 </v>
   <v>       0.05263158       0.10526316       0.00000000 </v>
   <v>       0.03508772       0.07017544       0.00000000 </v>
   <v>       0.01754386       0.03508772       0.00000000 </v>
   <v>       0.00000000       0.00000000       0.00000000 </v>
  </varray>
  <varray name="weights" >
   <v>       0.01666667 </v>
   <v>       0.01666667 </v>
   <v>       0.01666667 </v>
   <v>       0.01666667 </v>
   <v>       0.01666667 </v>
   <v>       0.01666667 </v>
   <v>       0.01666667 </v>
   <v>       0.01666667 </v>
   <v>       0.01666667 </v>
   <v>       0.01666667 </v>
   <v>       0.01666667 </v>
   <v>       0.01666667 </v>
   <v>       0.01666667 </v>
   <v>       0.01666667 </v>
   <v>       0.01666667 </v>
   <v>       0.01666667 </v>
   <v>       0.01666667 </v>
   <v>       0.01666667 </v>
   <v>       0.01666667 </v>
   <v>       0.01666667 </v>
   <v>       0.01666667 </v>
   <v>       0.01666667 </v>
   <v>       0.01666667 </v>
   <v>       0.01666667 </v>
   <v>       0.01666667 </v>
   <v>       0.01666667 </v>
   <v>       0.01666667 </v>
   <v>       0.01666667 </v>
   <v>       0.01666667 </v>
   <v>       0.01666667 </v>
   <v>       0.01666667 </v>
   <v>       0.01666667 </v>
   <v>       0.01666667 </v>
   <v>       0.01666667 </v>
   <v>       0.01666667 </v>
   <v>       0.01666667 </v>
   <v>       0.01666667 </v>
   <v>       0.01666667 </v>
   <v>       0.01666667 </v>
   <v>       0.01666667 </v>
   <v>       0.01666667 </v>
   <v>       0.01666667 </v>
   <v>       0.01666667 </v>
   <v>       0.01666667 </v>
   <v>       0.01666667 </v>
   <v>       0.01666667 </v>
   <v>       0.01666667 </v>
   <v>       0.01666667 </v>
   <v>       0.01666667 </v>
   <v>       0.01666667 </v>
   <v>       0.01666667 </v>
   <v>       0.01666667 </v>
   <v>       0.01666667 </v>
   <v>       0.01666667 </v>
   <v>       0.01666667 </v>
   <v>       0.01666667 </v>
   <v>       0.01666667 </v>
   <v>       0.01666667 </v>
   <v>       0.01666667 </v>
   <v>       0.01666667 </v>
  </varray>
 </kpoints>
 <parameters>
  <separator name="general" >
   <i type="string" name="SYSTEM">Simulation for cell shape cell volume r</i>
   <i type="logical" name="LCOMPAT"> F  </i>
  </separator>
  <separator name="electronic" >
   <i type="string" name="PREC">high</i>
   <i name="ENMAX">    500.00000000</i>
   <i name="ENAUG">    644.87300000</i>
   <i name="EDIFF">      0.00001000</i>
   <i type="int" name="IALGO">    38</i>
   <i type="int" name="IWAVPR">    10</i>
   <i type="int" name="NBANDS">   112</i>
   <i name="NELECT">    156.00000000</i>
   <i type="int" name="TURBO">     0</i>
   <i type="int" name="IRESTART">     0</i>
   <i type="int" name="NREBOOT">     0</i>
   <i type="int" name="NMIN">     0</i>
   <i name="EREF">      0.00000000</i>
   <separator name="electronic smearing" >
    <i type="int" name="ISMEAR">     0</i>
    <i name="SIGMA">      0.01000000</i>
    <i name="KSPACING">      0.50000000</i>
    <i type="logical" name="KGAMMA"> T  </i>
   </separator>
   <separator name="electronic projectors" >
    <i type="logical" name="LREAL"> T  </i>
    <v name="ROPT">     -0.00040000     -0.00040000     -0.00040000</v>
    <i type="int" name="LMAXPAW">  -100</i>
    <i type="int" name="LMAXMIX">     2</i>
    <i type="logical" name="NLSPLINE"> F  </i>
   </separator>
   <separator name="electronic startup" >
    <i type="int" name="ISTART">     1</i>
    <i type="int" name="ICHARG">    11</i>
    <i type="int" name="INIWAV">     1</i>
   </separator>
   <separator name="electronic spin" >
    <i type="int" name="ISPIN">     1</i>
    <i type="logical" name="LNONCOLLINEAR"> F  </i>
    <v name="MAGMOM">      1.00000000      1.00000000      1.00000000      1.00000000      1.00000000      1.00000000      1.00000000      1.00000000      1.00000000      1.00000000      1.00000000      1.00000000      1.00000000      1.00000000      1.00000000      1.00000000      1.00000000      1.00000000      1.00000000      1.00000000
      1.00000000      1.00000000      1.00000000      1.00000000      1.00000000      1.00000000      1.00000000      1.00000000      1.00000000      1.00000000      1.00000000      1.00000000      1.00000000      1.00000000      1.00000000      1.00000000      1.00000000      1.00000000      1.00000000      1.00000000
      1.00000000      1.00000000      1.00000000      1.00000000      1.00000000      1.00000000      1.00000000      1.00000000      1.00000000      1.00000000      1.00000000      1.00000000      1.00000000      1.00000000</v>
    <i name="NUPDOWN">     -1.00000000</i>
    <i type="logical" name="LSORBIT"> F  </i>
    <v name="SAXIS">      0.00000000      0.00000000      1.00000000</v>
    <i type="logical" name="LSPIRAL"> F  </i>
    <v name="QSPIRAL">      0.00000000      0.00000000      0.00000000</v>
    <i type="logical" name="LZEROZ"> F  </i>
   </separator>
   <separator name="electronic exchange-correlation" >
    <i type="logical" name="LASPH"> F  </i>
    <i type="logical" name="LMETAGGA"> F  </i>
   </separator>
   <separator name="electronic convergence" >
    <i type="int" name="NELM">   200</i>
    <i type="int" name="NELMDL">     0</i>
    <i type="int" name="NELMIN">     2</i>
    <i name="ENINI">    500.00000000</i>
    <separator name="electronic convergence detail" >
     <i type="logical" name="LDIAG"> T  </i>
     <i type="logical" name="LSUBROT"> F  </i>
     <i name="WEIMIN">      0.00000000</i>
     <i name="EBREAK">      0.00000002</i>
     <i name="DEPER">      0.30000000</i>
     <i type="int" name="NRMM">     4</i>
     <i name="TIME">      0.40000000</i>
    </separator>
   </separator>
   <separator name="electronic mixer" >
    <i name="AMIX">      0.40000000</i>
    <i name="BMIX">      1.00000000</i>
    <i name="AMIN">      0.10000000</i>
    <i name="AMIX_MAG">      1.60000000</i>
    <i name="BMIX_MAG">      1.00000000</i>
    <separator name="electronic mixer details" >
     <i type="int" name="IMIX">     4</i>
     <i type="logical" name="MIXFIRST"> F  </i>
     <i type="int" name="MAXMIX">   -45</i>
     <i name="WC">    100.00000000</i>
     <i type="int" name="INIMIX">     1</i>
     <i type="int" name="MIXPRE">     1</i>
     <i type="int" name="MREMOVE">     5</i>
    </separator>
   </separator>
   <separator name="electronic dipolcorrection" >
    <i type="logical" name="LDIPOL"> F  </i>
    <i type="logical" name="LMONO"> F  </i>
    <i type="int" name="IDIPOL">     0</i>
    <i name="EPSILON">      1.00000000</i>
    <v name="DIPOL">   -100.00000000   -100.00000000   -100.00000000</v>
    <i name="EFIELD">      0.00000000</i>
   </separator>
  </separator>
  <separator name="grids" >
   <i type="int" name="NGX">   112</i>
   <i type="int" name="NGY">   112</i>
   <i type="int" name="NGZ">   150</i>
   <i type="int" name="NGXF">   168</i>
   <i type="int" name="NGYF">   168</i>
   <i type="int" name="NGZF">   224</i>
   <i type="logical" name="ADDGRID"> F  </i>
  </separator>
  <separator name="ionic" >
   <i type="int" name="NSW">     0</i>
   <i type="int" name="IBRION">    -1</i>
   <i type="int" name="MDALGO">     0</i>
   <i type="int" name="ISIF">     2</i>
   <i name="PSTRESS">      0.00000000</i>
   <i name="EDIFFG">     -0.01000000</i>
   <i type="int" name="NFREE">     0</i>
   <i name="POTIM">      0.30000000</i>
   <i name="SMASS">     -3.00000000</i>
   <i name="SCALEE">      1.00000000</i>
  </separator>
  <separator name="ionic md" >
   <i name="TEBEG">      0.00010000</i>
   <i name="TEEND">      0.00010000</i>
   <i type="int" name="NBLOCK">     1</i>
   <i type="int" name="KBLOCK">     1</i>
   <i type="int" name="NPACO">   256</i>
   <i name="APACO">     16.00000000</i>
  </separator>
  <separator name="symmetry" >
   <i type="int" name="ISYM">     2</i>
   <i name="SYMPREC">      0.00001000</i>
  </separator>
  <separator name="dos" >
   <i type="int" name="LORBIT">     0</i>
   <v name="RWIGS">     -1.00000000     -1.00000000     -1.00000000</v>
   <i type="int" name="NEDOS">   301</i>
   <i name="EMIN">     10.00000000</i>
   <i name="EMAX">    -10.00000000</i>
   <i name="EFERMI">      0.00000000</i>
  </separator>
  <separator name="writing" >
   <i type="int" name="NWRITE">     0</i>
   <i type="logical" name="LWAVE"> F  </i>
   <i type="logical" name="LDOWNSAMPLE"> F  </i>
   <i type="logical" name="LCHARG"> F  </i>
   <i type="logical" name="LPARD"> F  </i>
   <i type="logical" name="LVTOT"> F  </i>
   <i type="logical" name="LVHAR"> F  </i>
   <i type="logical" name="LELF"> F  </i>
   <i type="logical" name="LOPTICS"> F  </i>
   <v name="STM">      0.00000000      0.00000000      0.00000000      0.00000000      0.00000000      0.00000000      0.00000000</v>
  </separator>
  <separator name="performance" >
   <i type="int" name="NPAR">    16</i>
   <i type="int" name="NSIM">     4</i>
   <i type="int" name="NBLK">    -1</i>
   <i type="logical" name="LPLANE"> T  </i>
   <i type="logical" name="LSCALAPACK"> T  </i>
   <i type="logical" name="LSCAAWARE"> F  </i>
   <i type="logical" name="LSCALU"> F  </i>
   <i type="logical" name="LASYNC"> F  </i>
   <i type="logical" name="LORBITALREAL"> F  </i>
  </separator>
  <separator name="miscellaneous" >
   <i type="int" name="IDIOT">     3</i>
   <i type="int" name="ISPECIAL">     0</i>
   <i type="logical" name="LMUSIC"> F  </i>
   <v name="POMASS">     12.01100000     14.00100000      1.00000000</v>
   <v name="DARWINR">      0.00000000      0.00000000      0.00000000</v>
   <v name="DARWINV">      1.00000000      1.00000000      1.00000000</v>
   <i type="logical" name="LCORR"> T  </i>
  </separator>
  <i type="logical" name="GGA_COMPAT"> T  </i>
  <i type="logical" name="LBERRY"> F  </i>
  <i type="int" name="ICORELEVEL">     0</i>
  <i type="logical" name="LDAU"> F  </i>
  <i type="int" name="I_CONSTRAINED_M">     0</i>
  <separator name="electronic exchange-correlation" >
   <i type="string" name="GGA">PE</i>
   <i type="int" name="VOSKOWN">     0</i>
   <i type="logical" name="LHFCALC"> F  </i>
   <i type="string" name="PRECFOCK"></i>
   <i type="logical" name="LSYMGRAD"> F  </i>
   <i type="logical" name="LHFONE"> F  </i>
   <i type="logical" name="LRHFCALC"> F  </i>
   <i type="logical" name="LTHOMAS"> F  </i>
   <i type="logical" name="LMODELHF"> F  </i>
   <i name="ENCUT4O">     -1.00000000</i>
   <i type="int" name="EXXOEP">     0</i>
   <i type="int" name="FOURORBIT">     0</i>
   <i name="AEXX">      0.00000000</i>
   <i name="HFALPHA">      0.00000000</i>
   <i name="MCALPHA">      0.00000000</i>
   <i name="ALDAX">      1.00000000</i>
   <i name="AGGAX">      1.00000000</i>
   <i name="ALDAC">      1.00000000</i>
   <i name="AGGAC">      1.00000000</i>
   <i type="int" name="NKREDX">     1</i>
   <i type="int" name="NKREDY">     1</i>
   <i type="int" name="NKREDZ">     1</i>
   <i type="logical" name="SHIFTRED"> F  </i>
   <i type="logical" name="ODDONLY"> F  </i>
   <i type="logical" name="EVENONLY"> F  </i>
   <i type="int" name="LMAXFOCK">     0</i>
   <i type="int" name="NMAXFOCKAE">     0</i>
   <i type="logical" name="LFOCKAEDFT"> F  </i>
   <i name="HFSCREEN">      0.00000000</i>
   <i name="HFSCREENC">      0.00000000</i>
   <i type="int" name="NBANDSGWLOW">     0</i>
  </separator>
  <separator name="vdW DFT" >
   <i type="logical" name="LUSE_VDW"> F  </i>
   <i name="Zab_VDW">     -0.84910000</i>
   <i name="PARAM1">      0.12340000</i>
   <i name="PARAM2">      1.00000000</i>
   <i name="PARAM3">      0.00000000</i>
  </separator>
  <separator name="model GW" >
   <i type="int" name="MODEL_GW">     0</i>
   <i name="MODEL_EPS0">     42.90155791</i>
   <i name="MODEL_ALPHA">      1.00000000</i>
  </separator>
  <separator name="linear response parameters" >
   <i type="logical" name="LEPSILON"> F  </i>
   <i type="logical" name="LRPA"> F  </i>
   <i type="logical" name="LNABLA"> F  </i>
   <i type="logical" name="LVEL"> F  </i>
   <i type="int" name="KINTER">     0</i>
   <i name="CSHIFT">      0.10000000</i>
   <i name="OMEGAMAX">     -1.00000000</i>
   <i name="DEG_THRESHOLD">      0.00200000</i>
   <i name="RTIME">     -0.10000000</i>
   <i name="WPLASMAI">      0.00000000</i>
   <v name="DFIELD">      0.00000000      0.00000000      0.00000000</v>
   <v name="WPLASMA">      0.00000000      0.00000000      0.00000000      0.00000000      0.00000000      0.00000000      0.00000000      0.00000000      0.00000000</v>
  </separator>
  <separator name="orbital magnetization" >
   <i type="logical" name="NUCIND"> F  </i>
   <v name="MAGPOS">      0.00000000      0.00000000      0.00000000</v>
   <i type="logical" name="LNICSALL"> T  </i>
   <i type="logical" name="ORBITALMAG"> F  </i>
   <i type="logical" name="LMAGBLOCH"> F  </i>
   <i type="logical" name="LCHIMAG"> F  </i>
   <i type="logical" name="LGAUGE"> T  </i>
   <i type="int" name="MAGATOM">     0</i>
   <v name="MAGDIPOL">      0.00000000      0.00000000      0.00000000</v>
   <v name="AVECCONST">      0.00000000      0.00000000      0.00000000</v>
  </separator>
  <separator name="response functions" >
   <i type="logical" name="LADDER"> F  </i>
   <i type="logical" name="LRPAFORCE"> F  </i>
   <i type="logical" name="LFXC"> F  </i>
   <i type="logical" name="LHARTREE"> T  </i>
   <i type="int" name="IBSE">     0</i>
   <v type="int" name="KPOINT">    -1     0     0     0</v>
   <i type="logical" name="LTCTE"> F  </i>
   <i type="logical" name="LTETE"> F  </i>
   <i type="logical" name="LTRIPLET"> F  </i>
   <i type="logical" name="LFXCEPS"> F  </i>
   <i type="logical" name="LFXHEG"> F  </i>
   <i type="int" name="NATURALO">     2</i>
   <i type="logical" name="L2ORDER"> F  </i>
   <i type="logical" name="LMP2LT"> F  </i>
   <i type="logical" name="LUSEW"> F  </i>
   <i name="ENCUTGW">     -2.00000000</i>
   <i name="ENCUTGWSOFT">     -2.00000000</i>
   <i name="ENCUTLF">     -1.00000000</i>
   <i type="int" name="LMAXMP2">    -1</i>
   <i name="SCISSOR">      0.00000000</i>
   <i type="int" name="NOMEGA">     0</i>
   <i type="int" name="NOMEGAR">     0</i>
   <i type="int" name="NBANDSGW">    -1</i>
   <i type="int" name="NBANDSO">    -1</i>
   <i type="int" name="NBANDSV">    -1</i>
   <i type="int" name="NELM">   200</i>
   <i type="int" name="NELMHF">     1</i>
   <i type="int" name="DIM">     3</i>
   <i type="int" name="ANTIRES">     0</i>
   <i name="OMEGAMAX">    -30.00000000</i>
   <i name="OMEGAMIN">    -30.00000000</i>
   <i name="OMEGATL">   -200.00000000</i>
   <i type="int" name="OMEGAGRID">   140</i>
   <i name="CSHIFT">     -0.10000000</i>
   <i type="logical" name="SELFENERGY"> F  </i>
   <i type="logical" name="LSPECTRAL"> F  </i>
   <i type="logical" name="LSPECTRALGW"> F  </i>
   <i type="logical" name="LSINGLES"> F  </i>
   <i type="logical" name="LFERMIGW"> F  </i>
   <i type="logical" name="ODDONLYGW"> F  </i>
   <i type="logical" name="EVENONLYGW"> F  </i>
   <i type="int" name="NKREDLFX">     1</i>
   <i type="int" name="NKREDLFY">     1</i>
   <i type="int" name="NKREDLFZ">     1</i>
   <i type="int" name="MAXMEM">  2800</i>
   <i type="int" name="TELESCOPE">     0</i>
   <i type="int" name="TAUPAR">     1</i>
   <i type="int" name="OMEGAPAR">    -1</i>
   <i name="LAMBDA">      1.00000000</i>
  </separator>
  <separator name="External order field" >
   <i name="OFIELD_KAPPA">      0.00000000</i>
   <v name="OFIELD_K">      0.00000000      0.00000000      0.00000000</v>
   <i name="OFIELD_Q6_NEAR">      0.00000000</i>
   <i name="OFIELD_Q6_FAR">      0.00000000</i>
   <i name="OFIELD_A">      0.00000000</i>
  </separator>
  <separator name="solvation model" >
   <i type="logical" name="LSOL"> F  </i>
  </separator>
 </parameters>
 <atominfo>
  <atoms>      54 </atoms>
  <types>       3 </types>
  <array name="atoms" >
   <dimension dim="1">ion</dimension>
   <field type="string">element</field>
   <field type="int">atomtype</field>
   <set>
    <rc><c>C </c><c>   1</c></rc>
    <rc><c>C </c><c>   1</c></rc>
    <rc><c>C </c><c>   1</c></rc>
    <rc><c>C </c><c>   1</c></rc>
    <rc><c>C </c><c>   1</c></rc>
    <rc><c>C </c><c>   1</c></rc>
    <rc><c>C </c><c>   1</c></rc>
    <rc><c>C </c><c>   1</c></rc>
    <rc><c>C </c><c>   1</c></rc>
    <rc><c>C </c><c>   1</c></rc>
    <rc><c>C </c><c>   1</c></rc>
    <rc><c>C </c><c>   1</c></rc>
    <rc><c>C </c><c>   1</c></rc>
    <rc><c>C </c><c>   1</c></rc>
    <rc><c>C </c><c>   1</c></rc>
    <rc><c>C </c><c>   1</c></rc>
    <rc><c>C </c><c>   1</c></rc>
    <rc><c>C </c><c>   1</c></rc>
    <rc><c>C </c><c>   1</c></rc>
    <rc><c>C </c><c>   1</c></rc>
    <rc><c>C </c><c>   1</c></rc>
    <rc><c>C </c><c>   1</c></rc>
    <rc><c>C </c><c>   1</c></rc>
    <rc><c>C </c><c>   1</c></rc>
    <rc><c>C </c><c>   1</c></rc>
    <rc><c>C </c><c>   1</c></rc>
    <rc><c>C </c><c>   1</c></rc>
    <rc><c>C </c><c>   1</c></rc>
    <rc><c>C </c><c>   1</c></rc>
    <rc><c>C </c><c>   1</c></rc>
    <rc><c>N </c><c>   2</c></rc>
    <rc><c>N </c><c>   2</c></rc>
    <rc><c>N </c><c>   2</c></rc>
    <rc><c>H </c><c>   3</c></rc>
    <rc><c>H </c><c>   3</c></rc>
    <rc><c>H </c><c>   3</c></rc>
    <rc><c>H </c><c>   3</c></rc>
    <rc><c>H </c><c>   3</c></rc>
    <rc><c>H </c><c>   3</c></rc>
    <rc><c>H </c><c>   3</c></rc>
    <rc><c>H </c><c>   3</c></rc>
    <rc><c>H </c><c>   3</c></rc>
    <rc><c>H </c><c>   3</c></rc>
    <rc><c>H </c><c>   3</c></rc>
    <rc><c>H </c><c>   3</c></rc>
    <rc><c>H </c><c>   3</c></rc>
    <rc><c>H </c><c>   3</c></rc>
    <rc><c>H </c><c>   3</c></rc>
    <rc><c>H </c><c>   3</c></rc>
    <rc><c>H </c><c>   3</c></rc>
    <rc><c>H </c><c>   3</c></rc>
    <rc><c>H </c><c>   3</c></rc>
    <rc><c>H </c><c>   3</c></rc>
    <rc><c>H </c><c>   3</c></rc>
   </set>
  </array>
  <array name="atomtypes" >
   <dimension dim="1">type</dimension>
   <field type="int">atomspertype</field>
   <field type="string">element</field>
   <field>mass</field>
   <field>valence</field>
   <field type="string">pseudopotential</field>
   <set>
    <rc><c>  30</c><c>C </c><c>     12.01100000</c><c>      4.00000000</c><c>  PAW_PBE C 08Apr2002                   </c></rc>
    <rc><c>   3</c><c>N </c><c>     14.00100000</c><c>      5.00000000</c><c>  PAW_PBE N 08Apr2002                   </c></rc>
    <rc><c>  21</c><c>H </c><c>      1.00000000</c><c>      1.00000000</c><c>  PAW_PBE H 15Jun2001                   </c></rc>
   </set>
  </array>
 </atominfo>
 <structure name="initialpos" >
  <crystal>
   <varray name="basis" >
    <v>      14.92043461      -0.01764367       0.00000000 </v>
    <v>       7.44493744      12.93029725       0.00000000 </v>
    <v>       0.00000000       0.00000000      20.00000000 </v>
   </varray>
   <i name="volume">   3861.14021229 </i>
   <varray name="rec_basis" >
    <v>       0.06697657      -0.03856341       0.00000000 </v>
    <v>       0.00009139       0.07728512       0.00000000 </v>
    <v>       0.00000000       0.00000000       0.05000000 </v>
   </varray>
  </crystal>
  <varray name="positions" >
   <v>       0.58349560       0.74653277       0.51522185 </v>
   <v>       0.52578578       0.86172205       0.51578011 </v>
   <v>       0.49630107       0.91481430       0.57657414 </v>
   <v>       0.69180324       0.69180324       0.51503716 </v>
   <v>       0.74653277       0.58349560       0.51522185 </v>
   <v>       0.58326732       0.58326732       0.51515062 </v>
   <v>       0.52993509       0.69156759       0.51523531 </v>
   <v>       0.69156759       0.52993509       0.51523531 </v>
   <v>       0.52556191       0.52556191       0.51534403 </v>
   <v>       0.49887529       0.49887529       0.57607590 </v>
   <v>       0.86172205       0.52578578       0.51578011 </v>
   <v>       0.91481430       0.49630107       0.57657414 </v>
   <v>       0.50023711       0.91786473       0.45581906 </v>
   <v>       0.49764103       0.49764103       0.45518501 </v>
   <v>       0.91786473       0.50023711       0.45581906 </v>
   <v>       0.25016208       0.41174502       0.51895362 </v>
   <v>       0.44439288       0.44439288       0.57829521 </v>
   <v>       0.41632796       0.41632796       0.51741480 </v>
   <v>       0.02344618       0.44142444       0.57897706 </v>
   <v>       0.07974169       0.41584617       0.51835757 </v>
   <v>       0.44360485       0.44360485       0.45702508 </v>
   <v>       0.02566966       0.44590545       0.45784309 </v>
   <v>       0.35828528       0.19491792       0.51925980 </v>
   <v>       0.24989221       0.24989221       0.52017460 </v>
   <v>       0.19491792       0.35828528       0.51925980 </v>
   <v>       0.35862801       0.35862801       0.51841910 </v>
   <v>       0.41174502       0.25016208       0.51895362 </v>
   <v>       0.44142444       0.02344618       0.57897706 </v>
   <v>       0.41584617       0.07974169       0.51835757 </v>
   <v>       0.44590545       0.02566966       0.45784309 </v>
   <v>       0.41873749       0.41873749       0.63874138 </v>
   <v>       0.07470623       0.40920137       0.64001665 </v>
   <v>       0.40920137       0.07470623       0.64001665 </v>
   <v>       0.44558588       0.73369606       0.51530020 </v>
   <v>       0.73405878       0.73405878       0.51504487 </v>
   <v>       0.51621870       0.87083432       0.62319976 </v>
   <v>       0.20805552       0.49610699       0.51819990 </v>
   <v>       0.52081084       0.52081084       0.62279104 </v>
   <v>       0.87083432       0.51621870       0.62319976 </v>
   <v>       0.52275222       0.87715125       0.40812213 </v>
   <v>       0.51817924       0.51817924       0.40756980 </v>
   <v>       0.87715125       0.52275222       0.40812213 </v>
   <v>       0.73369606       0.44558588       0.51530020 </v>
   <v>       0.43852156       0.43852156       0.68219452 </v>
   <v>       0.03477505       0.45010514       0.68070291 </v>
   <v>       0.42160000       0.42160000       0.41041717 </v>
   <v>       0.06981969       0.42587652       0.41135599 </v>
   <v>       0.49610699       0.20805552       0.51819990 </v>
   <v>       0.20764584       0.20764584       0.52079489 </v>
   <v>       0.37968715       0.37968715       0.64015055 </v>
   <v>       0.14978176       0.39141125       0.63996322 </v>
   <v>       0.45010514       0.03477505       0.68070291 </v>
   <v>       0.39141125       0.14978176       0.63996322 </v>
   <v>       0.42587652       0.06981969       0.41135599 </v>
  </varray>
 </structure>
 <calculation>
  <scstep>
   <time name="dav">   29.74   30.00</time>
   <time name="total">   29.83   30.10</time>
   <energy>
    <i name="alphaZ">     29.57094534 </i>
    <i name="ewald">  15779.37671545 </i>
    <i name="hartreedc"> -20331.43254210 </i>
    <i name="XCdc">    530.65545808 </i>
    <i name="pawpsdc">  14279.77507188 </i>
    <i name="pawaedc"> -14305.32971736 </i>
    <i name="eentropy">     -0.00000000 </i>
    <i name="bandstr">  -1825.20415777 </i>
    <i name="atom">   5470.27222599 </i>
    <i name="e_fr_energy">   -372.31600050 </i>
    <i name="e_wo_entrp">   -372.31600050 </i>
    <i name="e_0_energy">   -372.31600050 </i>
   </energy>
  </scstep>
  <scstep>
   <time name="dav">   33.51   33.78</time>
   <time name="total">   33.51   33.79</time>
   <energy>
    <i name="e_fr_energy">   -372.63975694 </i>
    <i name="e_wo_entrp">   -372.63975694 </i>
    <i name="e_0_energy">   -372.63975694 </i>
   </energy>
  </scstep>
  <scstep>
   <time name="dav">   34.35   34.64</time>
   <time name="total">   34.35   34.64</time>
   <energy>
    <i name="e_fr_energy">   -372.64626433 </i>
    <i name="e_wo_entrp">   -372.64626433 </i>
    <i name="e_0_energy">   -372.64626433 </i>
   </energy>
  </scstep>
  <scstep>
   <time name="dav">   33.21   33.48</time>
   <time name="total">   33.21   33.48</time>
   <energy>
    <i name="e_fr_energy">   -372.64640442 </i>
    <i name="e_wo_entrp">   -372.64640442 </i>
    <i name="e_0_energy">   -372.64640442 </i>
   </energy>
  </scstep>
  <scstep>
   <time name="dav">   29.47   29.71</time>
   <time name="total">   29.48   29.72</time>
   <energy>
    <i name="alphaZ">     29.57094534 </i>
    <i name="ewald">  15779.37671545 </i>
    <i name="hartreedc"> -20331.43254210 </i>
    <i name="XCdc">    530.65545808 </i>
    <i name="pawpsdc">  14279.77507188 </i>
    <i name="pawaedc"> -14305.32971736 </i>
    <i name="eentropy">     -0.00000000 </i>
    <i name="bandstr">  -1825.53456685 </i>
    <i name="atom">   5470.27222599 </i>
    <i name="e_fr_energy">   -372.64640958 </i>
    <i name="e_wo_entrp">   -372.64640958 </i>
    <i name="e_0_energy">   -372.64640958 </i>
   </energy>
  </scstep>
  <structure>
   <crystal>
    <varray name="basis" >
     <v>      14.92043461      -0.01764367       0.00000000 </v>
     <v>       7.44493744      12.93029725       0.00000000 </v>
     <v>       0.00000000       0.00000000      20.00000000 </v>
    </varray>
    <i name="volume">   3861.14021229 </i>
    <varray name="rec_basis" >
     <v>       0.06697657      -0.03856341       0.00000000 </v>
     <v>       0.00009139       0.07728512       0.00000000 </v>
     <v>       0.00000000       0.00000000       0.05000000 </v>
    </varray>
   </crystal>
   <varray name="positions" >
    <v>       0.58349560       0.74653277       0.51522185 </v>
    <v>       0.52578578       0.86172205       0.51578011 </v>
    <v>       0.49630107       0.91481430       0.57657414 </v>
    <v>       0.69180324       0.69180324       0.51503716 </v>
    <v>       0.74653277       0.58349560       0.51522185 </v>
    <v>       0.58326732       0.58326732       0.51515062 </v>
    <v>       0.52993509       0.69156759       0.51523531 </v>
    <v>       0.69156759       0.52993509       0.51523531 </v>
    <v>       0.52556191       0.52556191       0.51534403 </v>
    <v>       0.49887529       0.49887529       0.57607590 </v>
    <v>       0.86172205       0.52578578       0.51578011 </v>
    <v>       0.91481430       0.49630107       0.57657414 </v>
    <v>       0.50023711       0.91786473       0.45581906 </v>
    <v>       0.49764103       0.49764103       0.45518501 </v>
    <v>       0.91786473       0.50023711       0.45581906 </v>
    <v>       0.25016208       0.41174502       0.51895362 </v>
    <v>       0.44439288       0.44439288       0.57829521 </v>
    <v>       0.41632796       0.41632796       0.51741480 </v>
    <v>       0.02344618       0.44142444       0.57897706 </v>
    <v>       0.07974169       0.41584617       0.51835757 </v>
    <v>       0.44360485       0.44360485       0.45702508 </v>
    <v>       0.02566966       0.44590545       0.45784309 </v>
    <v>       0.35828528       0.19491792       0.51925980 </v>
    <v>       0.24989221       0.24989221       0.52017460 </v>
    <v>       0.19491792       0.35828528       0.51925980 </v>
    <v>       0.35862801       0.35862801       0.51841910 </v>
    <v>       0.41174502       0.25016208       0.51895362 </v>
    <v>       0.44142444       0.02344618       0.57897706 </v>
    <v>       0.41584617       0.07974169       0.51835757 </v>
    <v>       0.44590545       0.02566966       0.45784309 </v>
    <v>       0.41873749       0.41873749       0.63874138 </v>
    <v>       0.07470623       0.40920137       0.64001665 </v>
    <v>       0.40920137       0.07470623       0.64001665 </v>
    <v>       0.44558588       0.73369606       0.51530020 </v>
    <v>       0.73405878       0.73405878       0.51504487 </v>
    <v>       0.51621870       0.87083432       0.62319976 </v>
    <v>       0.20805552       0.49610699       0.51819990 </v>
    <v>       0.52081084       0.52081084       0.62279104 </v>
    <v>       0.87083432       0.51621870       0.62319976 </v>
    <v>       0.52275222       0.87715125       0.40812213 </v>
    <v>       0.51817924       0.51817924       0.40756980 </v>
    <v>       0.87715125       0.52275222       0.40812213 </v>
    <v>       0.73369606       0.44558588       0.51530020 </v>
    <v>       0.43852156       0.43852156       0.68219452 </v>
    <v>       0.03477505       0.45010514       0.68070291 </v>
    <v>       0.42160000       0.42160000       0.41041717 </v>
    <v>       0.06981969       0.42587652       0.41135599 </v>
    <v>       0.49610699       0.20805552       0.51819990 </v>
    <v>       0.20764584       0.20764584       0.52079489 </v>
    <v>       0.37968715       0.37968715       0.64015055 </v>
    <v>       0.14978176       0.39141125       0.63996322 </v>
    <v>       0.45010514       0.03477505       0.68070291 </v>
    <v>       0.39141125       0.14978176       0.63996322 </v>
    <v>       0.42587652       0.06981969       0.41135599 </v>
   </varray>
  </structure>
  <varray name="forces" >
   <v>       0.00571146      -0.00186823       0.00156562 </v>
   <v>      -0.00010284       0.00152315      -0.00259448 </v>
   <v>      -0.00154173      -0.00129101       0.00024326 </v>
   <v>      -0.00166112      -0.00095905       0.00027106 </v>
   <v>       0.00123780       0.00588039       0.00156562 </v>
   <v>       0.00214769       0.00123997       0.00241242 </v>
   <v>      -0.00638682       0.00343921       0.00248592 </v>
   <v>      -0.00021497      -0.00725075       0.00248592 </v>
   <v>       0.00071229       0.00041124       0.00042584 </v>
   <v>      -0.00114360      -0.00066026       0.00298921 </v>
   <v>       0.00126767      -0.00085064      -0.00259448 </v>
   <v>      -0.00188891      -0.00068967       0.00024326 </v>
   <v>       0.00183040      -0.00179737      -0.00187381 </v>
   <v>       0.00036755       0.00021220      -0.00064471 </v>
   <v>      -0.00064137       0.00248386      -0.00187381 </v>
   <v>       0.00138127       0.00694517      -0.00121561 </v>
   <v>       0.00021356       0.00012330      -0.00247201 </v>
   <v>       0.00058342       0.00033684       0.00084333 </v>
   <v>      -0.00145062       0.00115135      -0.00328460 </v>
   <v>      -0.00443824       0.00110819       0.00127697 </v>
   <v>      -0.00151575      -0.00087512       0.00331673 </v>
   <v>       0.00223966       0.00175742      -0.00403341 </v>
   <v>      -0.00587590       0.00286920      -0.00184895 </v>
   <v>       0.00134188       0.00077473      -0.00237221 </v>
   <v>      -0.00045316      -0.00652328      -0.00184895 </v>
   <v>       0.00104162       0.00060138      -0.00008788 </v>
   <v>       0.00670533      -0.00227637      -0.00121561 </v>
   <v>       0.00027179      -0.00183195      -0.00328460 </v>
   <v>      -0.00125940      -0.00439773       0.00127697 </v>
   <v>       0.00264180       0.00106089      -0.00403341 </v>
   <v>      -0.00341219      -0.00197003      -0.00114273 </v>
   <v>      -0.00041446      -0.00445050       0.00358037 </v>
   <v>      -0.00406148       0.00186632       0.00358037 </v>
   <v>      -0.00563225       0.00125193       0.00049026 </v>
   <v>       0.00801139       0.00462538      -0.00227710 </v>
   <v>      -0.00453844       0.00449768       0.00410540 </v>
   <v>       0.00066495       0.00788698      -0.00013722 </v>
   <v>      -0.00044228      -0.00025535       0.00781371 </v>
   <v>       0.00162589      -0.00617924       0.00410540 </v>
   <v>       0.00242060      -0.00000768       0.00176681 </v>
   <v>      -0.00058480      -0.00033763       0.00369278 </v>
   <v>       0.00120364       0.00210014       0.00176681 </v>
   <v>      -0.00173193      -0.00550364       0.00049026 </v>
   <v>      -0.00319743      -0.00184603       0.00672063 </v>
   <v>       0.00188459      -0.00286468       0.00322867 </v>
   <v>      -0.00389148      -0.00224674      -0.00207743 </v>
   <v>       0.00468420       0.00043271      -0.00485655 </v>
   <v>       0.00716279      -0.00336763      -0.00013722 </v>
   <v>      -0.00741496      -0.00428103      -0.00022369 </v>
   <v>       0.00192051       0.00110881      -0.00212179 </v>
   <v>       0.00074839       0.00268070      -0.00643174 </v>
   <v>      -0.00153859       0.00306444       0.00322867 </v>
   <v>       0.00269575      -0.00069222      -0.00643174 </v>
   <v>       0.00271684       0.00384028      -0.00485655 </v>
  </varray>
  <varray name="stress" >
   <v>       0.03326691       0.01275695      -0.02353794 </v>
   <v>       0.01275695       0.01853644      -0.01358964 </v>
   <v>      -0.02353794      -0.01358964      -0.21889762 </v>
  </varray>
  <energy>
   <i name="e_fr_energy">   -373.82954469 </i>
   <i name="e_wo_entrp">   -373.82954469 </i>
   <i name="e_0_energy">     -0.00000000 </i>
  </energy>
  <time name="totalsc">  181.29  182.86</time>
  <eigenvalues>
   <array>
    <dimension dim="1">band</dimension>
    <dimension dim="2">kpoint</dimension>
    <dimension dim="3">spin</dimension>
    <field>eigene</field>
    <field>occ</field>
    <set>
     <set comment="spin 1">
      <set comment="kpoint 1">
       <r>  -22.4327    1.0000 </r>
       <r>  -22.3627    1.0000 </r>
       <r>  -22.3430    1.0000 </r>
       <r>  -20.9437    1.0000 </r>
       <r>  -20.8226    1.0000 </r>
       <r>  -20.2536    1.0000 </r>
       <r>  -20.2475    1.0000 </r>
       <r>  -19.7008    1.0000 </r>
       <r>  -19.0480    1.0000 </r>
       <r>  -19.0416    1.0000 </r>
       <r>  -17.8883    1.0000 </r>
       <r>  -17.8842    1.0000 </r>
       <r>  -17.5595    1.0000 </r>
       <r>  -17.2619    1.0000 </r>
       <r>  -17.2482    1.0000 </r>
       <r>  -17.1675    1.0000 </r>
       <r>  -16.5733    1.0000 </r>
       <r>  -16.5702    1.0000 </r>
       <r>  -15.0105    1.0000 </r>
       <r>  -15.0061    1.0000 </r>
       <r>  -14.6188    1.0000 </r>
       <r>  -14.2845    1.0000 </r>
       <r>  -14.2061    1.0000 </r>
       <r>  -14.1875    1.0000 </r>
       <r>  -13.7948    1.0000 </r>
       <r>  -13.7948    1.0000 </r>
       <r>  -13.2748    1.0000 </r>
       <r>  -13.2036    1.0000 </r>
       <r>  -12.6262    1.0000 </r>
       <r>  -12.2443    1.0000 </r>
       <r>  -12.0313    1.0000 </r>
       <r>  -11.9975    1.0000 </r>
       <r>  -11.8927    1.0000 </r>
       <r>  -11.3643    1.0000 </r>
       <r>  -11.3025    1.0000 </r>
       <r>  -11.1502    1.0000 </r>
       <r>  -10.9338    1.0000 </r>
       <r>  -10.8614    1.0000 </r>
       <r>  -10.6794    1.0000 </r>
       <r>  -10.6721    1.0000 </r>
       <r>  -10.5602    1.0000 </r>
       <r>  -10.1269    1.0000 </r>
       <r>  -10.1000    1.0000 </r>
       <r>   -9.9601    1.0000 </r>
       <r>   -9.9170    1.0000 </r>
       <r>   -9.5484    1.0000 </r>
       <r>   -9.5338    1.0000 </r>
       <r>   -9.4319    1.0000 </r>
       <r>   -9.2514    1.0000 </r>
       <r>   -9.2430    1.0000 </r>
       <r>   -8.7251    1.0000 </r>
       <r>   -8.7082    1.0000 </r>
       <r>   -8.6255    1.0000 </r>
       <r>   -8.4945    1.0000 </r>
       <r>   -8.4757    1.0000 </r>
       <r>   -8.4004    1.0000 </r>
       <r>   -8.0220    1.0000 </r>
       <r>   -7.9175    1.0000 </r>
       <r>   -7.8279    1.0000 </r>
       <r>   -7.8223    1.0000 </r>
       <r>   -7.6086    1.0000 </r>
       <r>   -7.6076    1.0000 </r>
       <r>   -7.4122    1.0000 </r>
       <r>   -7.0605    1.0000 </r>
       <r>   -7.0347    1.0000 </r>
       <r>   -6.7929    1.0000 </r>
       <r>   -6.7741    1.0000 </r>
       <r>   -6.7406    1.0000 </r>
       <r>   -5.6735    1.0000 </r>
       <r>   -5.6579    1.0000 </r>
       <r>   -5.4037    1.0000 </r>
       <r>   -5.3886    1.0000 </r>
       <r>   -5.3104    1.0000 </r>
       <r>   -5.2814    1.0000 </r>
       <r>   -5.1465    1.0000 </r>
       <r>   -4.2978    1.0000 </r>
       <r>   -4.2541    1.0000 </r>
       <r>   -4.1403    1.0000 </r>
       <r>   -0.8678    0.0000 </r>
       <r>   -0.8381    0.0000 </r>
       <r>   -0.5987    0.0000 </r>
       <r>   -0.5637    0.0000 </r>
       <r>   -0.4735    0.0000 </r>
       <r>   -0.3543    0.0000 </r>
       <r>   -0.3162    0.0000 </r>
       <r>   -0.2394    0.0000 </r>
       <r>    0.1758    0.0000 </r>
       <r>    0.1965    0.0000 </r>
       <r>    0.2169    0.0000 </r>
       <r>    0.2573    0.0000 </r>
       <r>    0.3819    0.0000 </r>
       <r>    0.4441    0.0000 </r>
       <r>    0.4478    0.0000 </r>
       <r>    0.6515    0.0000 </r>
       <r>    0.8624    0.0000 </r>
       <r>    0.9304    0.0000 </r>
       <r>    0.9692    0.0000 </r>
       <r>    1.0679    0.0000 </r>
       <r>    1.0684    0.0000 </r>
       <r>    1.0937    0.0000 </r>
       <r>    1.4017    0.0000 </r>
       <r>    1.4048    0.0000 </r>
       <r>    1.4430    0.0000 </r>
       <r>    1.5233    0.0000 </r>
       <r>    1.5468    0.0000 </r>
       <r>    1.5691    0.0000 </r>
       <r>    1.6734    0.0000 </r>
       <r>    1.6815    0.0000 </r>
       <r>    1.6905    0.0000 </r>
       <r>    1.7193    0.0000 </r>
       <r>    1.7716    0.0000 </r>
       <r>    1.8843    0.0000 </r>
      </set>
      <set comment="kpoint 2">
       <r>  -22.4327    1.0000 </r>
       <r>  -22.3627    1.0000 </r>
       <r>  -22.3430    1.0000 </r>
       <r>  -20.9436    1.0000 </r>
       <r>  -20.8228    1.0000 </r>
       <r>  -20.2536    1.0000 </r>
       <r>  -20.2469    1.0000 </r>
       <r>  -19.7021    1.0000 </r>
       <r>  -19.0480    1.0000 </r>
       <r>  -19.0398    1.0000 </r>
       <r>  -17.8889    1.0000 </r>
       <r>  -17.8883    1.0000 </r>
       <r>  -17.5554    1.0000 </r>
       <r>  -17.2620    1.0000 </r>
       <r>  -17.2482    1.0000 </r>
       <r>  -17.1670    1.0000 </r>
       <r>  -16.5732    1.0000 </r>
       <r>  -16.5710    1.0000 </r>
       <r>  -15.0102    1.0000 </r>
       <r>  -15.0061    1.0000 </r>
       <r>  -14.6199    1.0000 </r>
       <r>  -14.2846    1.0000 </r>
       <r>  -14.2061    1.0000 </r>
       <r>  -14.1878    1.0000 </r>
       <r>  -13.7948    1.0000 </r>
       <r>  -13.7929    1.0000 </r>
       <r>  -13.2752    1.0000 </r>
       <r>  -13.2036    1.0000 </r>
       <r>  -12.6256    1.0000 </r>
       <r>  -12.2443    1.0000 </r>
       <r>  -12.0315    1.0000 </r>
       <r>  -11.9975    1.0000 </r>
       <r>  -11.8945    1.0000 </r>
       <r>  -11.3640    1.0000 </r>
       <r>  -11.3026    1.0000 </r>
       <r>  -11.1499    1.0000 </r>
       <r>  -10.9337    1.0000 </r>
       <r>  -10.8613    1.0000 </r>
       <r>  -10.6794    1.0000 </r>
       <r>  -10.6721    1.0000 </r>
       <r>  -10.5602    1.0000 </r>
       <r>  -10.1261    1.0000 </r>
       <r>  -10.0994    1.0000 </r>
       <r>   -9.9604    1.0000 </r>
       <r>   -9.9170    1.0000 </r>
       <r>   -9.5486    1.0000 </r>
       <r>   -9.5337    1.0000 </r>
       <r>   -9.4318    1.0000 </r>
       <r>   -9.2513    1.0000 </r>
       <r>   -9.2435    1.0000 </r>
       <r>   -8.7247    1.0000 </r>
       <r>   -8.7081    1.0000 </r>
       <r>   -8.6252    1.0000 </r>
       <r>   -8.4945    1.0000 </r>
       <r>   -8.4755    1.0000 </r>
       <r>   -8.4007    1.0000 </r>
       <r>   -8.0237    1.0000 </r>
       <r>   -7.9210    1.0000 </r>
       <r>   -7.8246    1.0000 </r>
       <r>   -7.8223    1.0000 </r>
       <r>   -7.6079    1.0000 </r>
       <r>   -7.6070    1.0000 </r>
       <r>   -7.4121    1.0000 </r>
       <r>   -7.0604    1.0000 </r>
       <r>   -7.0351    1.0000 </r>
       <r>   -6.7928    1.0000 </r>
       <r>   -6.7740    1.0000 </r>
       <r>   -6.7405    1.0000 </r>
       <r>   -5.6735    1.0000 </r>
       <r>   -5.6579    1.0000 </r>
       <r>   -5.4038    1.0000 </r>
       <r>   -5.3884    1.0000 </r>
       <r>   -5.3103    1.0000 </r>
       <r>   -5.2814    1.0000 </r>
       <r>   -5.1468    1.0000 </r>
       <r>   -4.2978    1.0000 </r>
       <r>   -4.2541    1.0000 </r>
       <r>   -4.1403    1.0000 </r>
       <r>   -0.8680    0.0000 </r>
       <r>   -0.8381    0.0000 </r>
       <r>   -0.5983    0.0000 </r>
       <r>   -0.5637    0.0000 </r>
       <r>   -0.4735    0.0000 </r>
       <r>   -0.3539    0.0000 </r>
       <r>   -0.3162    0.0000 </r>
       <r>   -0.2393    0.0000 </r>
       <r>    0.1745    0.0000 </r>
       <r>    0.1963    0.0000 </r>
       <r>    0.2176    0.0000 </r>
       <r>    0.2569    0.0000 </r>
       <r>    0.3778    0.0000 </r>
       <r>    0.4475    0.0000 </r>
       <r>    0.4495    0.0000 </r>
       <r>    0.6520    0.0000 </r>
       <r>    0.8619    0.0000 </r>
       <r>    0.9308    0.0000 </r>
       <r>    0.9687    0.0000 </r>
       <r>    1.0499    0.0000 </r>
       <r>    1.0685    0.0000 </r>
       <r>    1.1134    0.0000 </r>
       <r>    1.4021    0.0000 </r>
       <r>    1.4030    0.0000 </r>
       <r>    1.4414    0.0000 </r>
       <r>    1.5216    0.0000 </r>
       <r>    1.5446    0.0000 </r>
       <r>    1.5669    0.0000 </r>
       <r>    1.6692    0.0000 </r>
       <r>    1.6837    0.0000 </r>
       <r>    1.6970    0.0000 </r>
       <r>    1.7241    0.0000 </r>
       <r>    1.7724    0.0000 </r>
       <r>    1.8809    0.0000 </r>
      </set>
      <set comment="kpoint 3">
       <r>  -22.4327    1.0000 </r>
       <r>  -22.3627    1.0000 </r>
       <r>  -22.3430    1.0000 </r>
       <r>  -20.9434    1.0000 </r>
       <r>  -20.8232    1.0000 </r>
       <r>  -20.2536    1.0000 </r>
       <r>  -20.2453    1.0000 </r>
       <r>  -19.7061    1.0000 </r>
       <r>  -19.0480    1.0000 </r>
       <r>  -19.0344    1.0000 </r>
       <r>  -17.9022    1.0000 </r>
       <r>  -17.8883    1.0000 </r>
       <r>  -17.5439    1.0000 </r>
       <r>  -17.2621    1.0000 </r>
       <r>  -17.2482    1.0000 </r>
       <r>  -17.1655    1.0000 </r>
       <r>  -16.5733    1.0000 </r>
       <r>  -16.5732    1.0000 </r>
       <r>  -15.0094    1.0000 </r>
       <r>  -15.0062    1.0000 </r>
       <r>  -14.6232    1.0000 </r>
       <r>  -14.2847    1.0000 </r>
       <r>  -14.2061    1.0000 </r>
       <r>  -14.1888    1.0000 </r>
       <r>  -13.7947    1.0000 </r>
       <r>  -13.7872    1.0000 </r>
       <r>  -13.2764    1.0000 </r>
       <r>  -13.2036    1.0000 </r>
       <r>  -12.6237    1.0000 </r>
       <r>  -12.2443    1.0000 </r>
       <r>  -12.0319    1.0000 </r>
       <r>  -11.9975    1.0000 </r>
       <r>  -11.9001    1.0000 </r>
       <r>  -11.3631    1.0000 </r>
       <r>  -11.3027    1.0000 </r>
       <r>  -11.1490    1.0000 </r>
       <r>  -10.9335    1.0000 </r>
       <r>  -10.8612    1.0000 </r>
       <r>  -10.6796    1.0000 </r>
       <r>  -10.6722    1.0000 </r>
       <r>  -10.5604    1.0000 </r>
       <r>  -10.1237    1.0000 </r>
       <r>  -10.0976    1.0000 </r>
       <r>   -9.9612    1.0000 </r>
       <r>   -9.9170    1.0000 </r>
       <r>   -9.5491    1.0000 </r>
       <r>   -9.5337    1.0000 </r>
       <r>   -9.4315    1.0000 </r>
       <r>   -9.2511    1.0000 </r>
       <r>   -9.2450    1.0000 </r>
       <r>   -8.7237    1.0000 </r>
       <r>   -8.7079    1.0000 </r>
       <r>   -8.6242    1.0000 </r>
       <r>   -8.4945    1.0000 </r>
       <r>   -8.4749    1.0000 </r>
       <r>   -8.4017    1.0000 </r>
       <r>   -8.0287    1.0000 </r>
       <r>   -7.9306    1.0000 </r>
       <r>   -7.8222    1.0000 </r>
       <r>   -7.8160    1.0000 </r>
       <r>   -7.6088    1.0000 </r>
       <r>   -7.6025    1.0000 </r>
       <r>   -7.4118    1.0000 </r>
       <r>   -7.0602    1.0000 </r>
       <r>   -7.0363    1.0000 </r>
       <r>   -6.7925    1.0000 </r>
       <r>   -6.7739    1.0000 </r>
       <r>   -6.7401    1.0000 </r>
       <r>   -5.6734    1.0000 </r>
       <r>   -5.6577    1.0000 </r>
       <r>   -5.4042    1.0000 </r>
       <r>   -5.3877    1.0000 </r>
       <r>   -5.3100    1.0000 </r>
       <r>   -5.2813    1.0000 </r>
       <r>   -5.1478    1.0000 </r>
       <r>   -4.2978    1.0000 </r>
       <r>   -4.2541    1.0000 </r>
       <r>   -4.1406    1.0000 </r>
       <r>   -0.8685    0.0000 </r>
       <r>   -0.8381    0.0000 </r>
       <r>   -0.5973    0.0000 </r>
       <r>   -0.5637    0.0000 </r>
       <r>   -0.4733    0.0000 </r>
       <r>   -0.3526    0.0000 </r>
       <r>   -0.3164    0.0000 </r>
       <r>   -0.2390    0.0000 </r>
       <r>    0.1708    0.0000 </r>
       <r>    0.1958    0.0000 </r>
       <r>    0.2194    0.0000 </r>
       <r>    0.2556    0.0000 </r>
       <r>    0.3687    0.0000 </r>
       <r>    0.4468    0.0000 </r>
       <r>    0.4627    0.0000 </r>
       <r>    0.6535    0.0000 </r>
       <r>    0.8604    0.0000 </r>
       <r>    0.9320    0.0000 </r>
       <r>    0.9658    0.0000 </r>
       <r>    1.0271    0.0000 </r>
       <r>    1.0686    0.0000 </r>
       <r>    1.1424    0.0000 </r>
       <r>    1.3949    0.0000 </r>
       <r>    1.4070    0.0000 </r>
       <r>    1.4365    0.0000 </r>
       <r>    1.5170    0.0000 </r>
       <r>    1.5306    0.0000 </r>
       <r>    1.5706    0.0000 </r>
       <r>    1.6624    0.0000 </r>
       <r>    1.6898    0.0000 </r>
       <r>    1.7070    0.0000 </r>
       <r>    1.7360    0.0000 </r>
       <r>    1.7759    0.0000 </r>
       <r>    1.8773    0.0000 </r>
      </set>
      <set comment="kpoint 4">
       <r>  -22.4326    1.0000 </r>
       <r>  -22.3627    1.0000 </r>
       <r>  -22.3430    1.0000 </r>
       <r>  -20.9431    1.0000 </r>
       <r>  -20.8240    1.0000 </r>
       <r>  -20.2536    1.0000 </r>
       <r>  -20.2427    1.0000 </r>
       <r>  -19.7124    1.0000 </r>
       <r>  -19.0480    1.0000 </r>
       <r>  -19.0257    1.0000 </r>
       <r>  -17.9224    1.0000 </r>
       <r>  -17.8883    1.0000 </r>
       <r>  -17.5265    1.0000 </r>
       <r>  -17.2622    1.0000 </r>
       <r>  -17.2482    1.0000 </r>
       <r>  -17.1629    1.0000 </r>
       <r>  -16.5772    1.0000 </r>
       <r>  -16.5732    1.0000 </r>
       <r>  -15.0081    1.0000 </r>
       <r>  -15.0062    1.0000 </r>
       <r>  -14.6287    1.0000 </r>
       <r>  -14.2850    1.0000 </r>
       <r>  -14.2061    1.0000 </r>
       <r>  -14.1903    1.0000 </r>
       <r>  -13.7946    1.0000 </r>
       <r>  -13.7780    1.0000 </r>
       <r>  -13.2784    1.0000 </r>
       <r>  -13.2037    1.0000 </r>
       <r>  -12.6206    1.0000 </r>
       <r>  -12.2443    1.0000 </r>
       <r>  -12.0328    1.0000 </r>
       <r>  -11.9975    1.0000 </r>
       <r>  -11.9090    1.0000 </r>
       <r>  -11.3616    1.0000 </r>
       <r>  -11.3028    1.0000 </r>
       <r>  -11.1475    1.0000 </r>
       <r>  -10.9332    1.0000 </r>
       <r>  -10.8609    1.0000 </r>
       <r>  -10.6799    1.0000 </r>
       <r>  -10.6723    1.0000 </r>
       <r>  -10.5606    1.0000 </r>
       <r>  -10.1201    1.0000 </r>
       <r>  -10.0942    1.0000 </r>
       <r>   -9.9625    1.0000 </r>
       <r>   -9.9170    1.0000 </r>
       <r>   -9.5501    1.0000 </r>
       <r>   -9.5337    1.0000 </r>
       <r>   -9.4311    1.0000 </r>
       <r>   -9.2508    1.0000 </r>
       <r>   -9.2474    1.0000 </r>
       <r>   -8.7220    1.0000 </r>
       <r>   -8.7076    1.0000 </r>
       <r>   -8.6226    1.0000 </r>
       <r>   -8.4946    1.0000 </r>
       <r>   -8.4739    1.0000 </r>
       <r>   -8.4033    1.0000 </r>
       <r>   -8.0366    1.0000 </r>
       <r>   -7.9438    1.0000 </r>
       <r>   -7.8222    1.0000 </r>
       <r>   -7.8041    1.0000 </r>
       <r>   -7.6102    1.0000 </r>
       <r>   -7.5954    1.0000 </r>
       <r>   -7.4111    1.0000 </r>
       <r>   -7.0598    1.0000 </r>
       <r>   -7.0384    1.0000 </r>
       <r>   -6.7920    1.0000 </r>
       <r>   -6.7737    1.0000 </r>
       <r>   -6.7394    1.0000 </r>
       <r>   -5.6733    1.0000 </r>
       <r>   -5.6576    1.0000 </r>
       <r>   -5.4048    1.0000 </r>
       <r>   -5.3866    1.0000 </r>
       <r>   -5.3094    1.0000 </r>
       <r>   -5.2811    1.0000 </r>
       <r>   -5.1495    1.0000 </r>
       <r>   -4.2979    1.0000 </r>
       <r>   -4.2541    1.0000 </r>
       <r>   -4.1409    1.0000 </r>
       <r>   -0.8693    0.0000 </r>
       <r>   -0.8381    0.0000 </r>
       <r>   -0.5956    0.0000 </r>
       <r>   -0.5637    0.0000 </r>
       <r>   -0.4730    0.0000 </r>
       <r>   -0.3504    0.0000 </r>
       <r>   -0.3168    0.0000 </r>
       <r>   -0.2385    0.0000 </r>
       <r>    0.1654    0.0000 </r>
       <r>    0.1948    0.0000 </r>
       <r>    0.2218    0.0000 </r>
       <r>    0.2531    0.0000 </r>
       <r>    0.3590    0.0000 </r>
       <r>    0.4456    0.0000 </r>
       <r>    0.4796    0.0000 </r>
       <r>    0.6559    0.0000 </r>
       <r>    0.8580    0.0000 </r>
       <r>    0.9338    0.0000 </r>
       <r>    0.9561    0.0000 </r>
       <r>    1.0125    0.0000 </r>
       <r>    1.0692    0.0000 </r>
       <r>    1.1718    0.0000 </r>
       <r>    1.3848    0.0000 </r>
       <r>    1.4130    0.0000 </r>
       <r>    1.4283    0.0000 </r>
       <r>    1.5089    0.0000 </r>
       <r>    1.5107    0.0000 </r>
       <r>    1.5805    0.0000 </r>
       <r>    1.6568    0.0000 </r>
       <r>    1.6982    0.0000 </r>
       <r>    1.7113    0.0000 </r>
       <r>    1.7480    0.0000 </r>
       <r>    1.7856    0.0000 </r>
       <r>    1.8869    0.0000 </r>
      </set>
      <set comment="kpoint 5">
       <r>  -22.4326    1.0000 </r>
       <r>  -22.3627    1.0000 </r>
       <r>  -22.3430    1.0000 </r>
       <r>  -20.9427    1.0000 </r>
       <r>  -20.8250    1.0000 </r>
       <r>  -20.2536    1.0000 </r>
       <r>  -20.2391    1.0000 </r>
       <r>  -19.7209    1.0000 </r>
       <r>  -19.0480    1.0000 </r>
       <r>  -19.0138    1.0000 </r>
       <r>  -17.9478    1.0000 </r>
       <r>  -17.8883    1.0000 </r>
       <r>  -17.5054    1.0000 </r>
       <r>  -17.2624    1.0000 </r>
       <r>  -17.2482    1.0000 </r>
       <r>  -17.1592    1.0000 </r>
       <r>  -16.5826    1.0000 </r>
       <r>  -16.5732    1.0000 </r>
       <r>  -15.0063    1.0000 </r>
       <r>  -15.0062    1.0000 </r>
       <r>  -14.6361    1.0000 </r>
       <r>  -14.2853    1.0000 </r>
       <r>  -14.2061    1.0000 </r>
       <r>  -14.1922    1.0000 </r>
       <r>  -13.7945    1.0000 </r>
       <r>  -13.7655    1.0000 </r>
       <r>  -13.2813    1.0000 </r>
       <r>  -13.2037    1.0000 </r>
       <r>  -12.6163    1.0000 </r>
       <r>  -12.2444    1.0000 </r>
       <r>  -12.0341    1.0000 </r>
       <r>  -11.9975    1.0000 </r>
       <r>  -11.9210    1.0000 </r>
       <r>  -11.3597    1.0000 </r>
       <r>  -11.3030    1.0000 </r>
       <r>  -11.1456    1.0000 </r>
       <r>  -10.9327    1.0000 </r>
       <r>  -10.8605    1.0000 </r>
       <r>  -10.6802    1.0000 </r>
       <r>  -10.6725    1.0000 </r>
       <r>  -10.5610    1.0000 </r>
       <r>  -10.1159    1.0000 </r>
       <r>  -10.0889    1.0000 </r>
       <r>   -9.9642    1.0000 </r>
       <r>   -9.9170    1.0000 </r>
       <r>   -9.5515    1.0000 </r>
       <r>   -9.5336    1.0000 </r>
       <r>   -9.4306    1.0000 </r>
       <r>   -9.2506    1.0000 </r>
       <r>   -9.2504    1.0000 </r>
       <r>   -8.7196    1.0000 </r>
       <r>   -8.7072    1.0000 </r>
       <r>   -8.6204    1.0000 </r>
       <r>   -8.4946    1.0000 </r>
       <r>   -8.4726    1.0000 </r>
       <r>   -8.4056    1.0000 </r>
       <r>   -8.0471    1.0000 </r>
       <r>   -7.9590    1.0000 </r>
       <r>   -7.8221    1.0000 </r>
       <r>   -7.7906    1.0000 </r>
       <r>   -7.6120    1.0000 </r>
       <r>   -7.5865    1.0000 </r>
       <r>   -7.4101    1.0000 </r>
       <r>   -7.0593    1.0000 </r>
       <r>   -7.0412    1.0000 </r>
       <r>   -6.7912    1.0000 </r>
       <r>   -6.7734    1.0000 </r>
       <r>   -6.7385    1.0000 </r>
       <r>   -5.6731    1.0000 </r>
       <r>   -5.6573    1.0000 </r>
       <r>   -5.4057    1.0000 </r>
       <r>   -5.3851    1.0000 </r>
       <r>   -5.3086    1.0000 </r>
       <r>   -5.2808    1.0000 </r>
       <r>   -5.1519    1.0000 </r>
       <r>   -4.2979    1.0000 </r>
       <r>   -4.2540    1.0000 </r>
       <r>   -4.1414    1.0000 </r>
       <r>   -0.8704    0.0000 </r>
       <r>   -0.8382    0.0000 </r>
       <r>   -0.5933    0.0000 </r>
       <r>   -0.5638    0.0000 </r>
       <r>   -0.4726    0.0000 </r>
       <r>   -0.3474    0.0000 </r>
       <r>   -0.3172    0.0000 </r>
       <r>   -0.2378    0.0000 </r>
       <r>    0.1585    0.0000 </r>
       <r>    0.1935    0.0000 </r>
       <r>    0.2245    0.0000 </r>
       <r>    0.2492    0.0000 </r>
       <r>    0.3510    0.0000 </r>
       <r>    0.4441    0.0000 </r>
       <r>    0.4979    0.0000 </r>
       <r>    0.6593    0.0000 </r>
       <r>    0.8547    0.0000 </r>
       <r>    0.9359    0.0000 </r>
       <r>    0.9379    0.0000 </r>
       <r>    1.0088    0.0000 </r>
       <r>    1.0706    0.0000 </r>
       <r>    1.1999    0.0000 </r>
       <r>    1.3733    0.0000 </r>
       <r>    1.4165    0.0000 </r>
       <r>    1.4202    0.0000 </r>
       <r>    1.4872    0.0000 </r>
       <r>    1.5047    0.0000 </r>
       <r>    1.5898    0.0000 </r>
       <r>    1.6541    0.0000 </r>
       <r>    1.7068    0.0000 </r>
       <r>    1.7080    0.0000 </r>
       <r>    1.7559    0.0000 </r>
       <r>    1.8050    0.0000 </r>
       <r>    1.8748    0.0000 </r>
      </set>
      <set comment="kpoint 6">
       <r>  -22.4326    1.0000 </r>
       <r>  -22.3628    1.0000 </r>
       <r>  -22.3430    1.0000 </r>
       <r>  -20.9422    1.0000 </r>
       <r>  -20.8262    1.0000 </r>
       <r>  -20.2536    1.0000 </r>
       <r>  -20.2344    1.0000 </r>
       <r>  -19.7314    1.0000 </r>
       <r>  -19.0480    1.0000 </r>
       <r>  -18.9990    1.0000 </r>
       <r>  -17.9767    1.0000 </r>
       <r>  -17.8883    1.0000 </r>
       <r>  -17.4822    1.0000 </r>
       <r>  -17.2627    1.0000 </r>
       <r>  -17.2482    1.0000 </r>
       <r>  -17.1542    1.0000 </r>
       <r>  -16.5895    1.0000 </r>
       <r>  -16.5732    1.0000 </r>
       <r>  -15.0064    1.0000 </r>
       <r>  -15.0038    1.0000 </r>
       <r>  -14.6452    1.0000 </r>
       <r>  -14.2856    1.0000 </r>
       <r>  -14.2061    1.0000 </r>
       <r>  -14.1943    1.0000 </r>
       <r>  -13.7943    1.0000 </r>
       <r>  -13.7503    1.0000 </r>
       <r>  -13.2849    1.0000 </r>
       <r>  -13.2038    1.0000 </r>
       <r>  -12.6107    1.0000 </r>
       <r>  -12.2444    1.0000 </r>
       <r>  -12.0363    1.0000 </r>
       <r>  -11.9975    1.0000 </r>
       <r>  -11.9354    1.0000 </r>
       <r>  -11.3575    1.0000 </r>
       <r>  -11.3033    1.0000 </r>
       <r>  -11.1432    1.0000 </r>
       <r>  -10.9322    1.0000 </r>
       <r>  -10.8600    1.0000 </r>
       <r>  -10.6807    1.0000 </r>
       <r>  -10.6727    1.0000 </r>
       <r>  -10.5614    1.0000 </r>
       <r>  -10.1117    1.0000 </r>
       <r>  -10.0811    1.0000 </r>
       <r>   -9.9665    1.0000 </r>
       <r>   -9.9170    1.0000 </r>
       <r>   -9.5533    1.0000 </r>
       <r>   -9.5335    1.0000 </r>
       <r>   -9.4299    1.0000 </r>
       <r>   -9.2548    1.0000 </r>
       <r>   -9.2500    1.0000 </r>
       <r>   -8.7166    1.0000 </r>
       <r>   -8.7067    1.0000 </r>
       <r>   -8.6176    1.0000 </r>
       <r>   -8.4947    1.0000 </r>
       <r>   -8.4708    1.0000 </r>
       <r>   -8.4084    1.0000 </r>
       <r>   -8.0597    1.0000 </r>
       <r>   -7.9752    1.0000 </r>
       <r>   -7.8220    1.0000 </r>
       <r>   -7.7763    1.0000 </r>
       <r>   -7.6143    1.0000 </r>
       <r>   -7.5766    1.0000 </r>
       <r>   -7.4083    1.0000 </r>
       <r>   -7.0587    1.0000 </r>
       <r>   -7.0448    1.0000 </r>
       <r>   -6.7903    1.0000 </r>
       <r>   -6.7730    1.0000 </r>
       <r>   -6.7374    1.0000 </r>
       <r>   -5.6729    1.0000 </r>
       <r>   -5.6570    1.0000 </r>
       <r>   -5.4067    1.0000 </r>
       <r>   -5.3833    1.0000 </r>
       <r>   -5.3076    1.0000 </r>
       <r>   -5.2805    1.0000 </r>
       <r>   -5.1549    1.0000 </r>
       <r>   -4.2980    1.0000 </r>
       <r>   -4.2539    1.0000 </r>
       <r>   -4.1420    1.0000 </r>
       <r>   -0.8718    0.0000 </r>
       <r>   -0.8382    0.0000 </r>
       <r>   -0.5904    0.0000 </r>
       <r>   -0.5639    0.0000 </r>
       <r>   -0.4721    0.0000 </r>
       <r>   -0.3436    0.0000 </r>
       <r>   -0.3178    0.0000 </r>
       <r>   -0.2370    0.0000 </r>
       <r>    0.1507    0.0000 </r>
       <r>    0.1915    0.0000 </r>
       <r>    0.2271    0.0000 </r>
       <r>    0.2436    0.0000 </r>
       <r>    0.3459    0.0000 </r>
       <r>    0.4421    0.0000 </r>
       <r>    0.5167    0.0000 </r>
       <r>    0.6637    0.0000 </r>
       <r>    0.8499    0.0000 </r>
       <r>    0.9165    0.0000 </r>
       <r>    0.9379    0.0000 </r>
       <r>    1.0116    0.0000 </r>
       <r>    1.0733    0.0000 </r>
       <r>    1.2246    0.0000 </r>
       <r>    1.3610    0.0000 </r>
       <r>    1.4027    0.0000 </r>
       <r>    1.4267    0.0000 </r>
       <r>    1.4689    0.0000 </r>
       <r>    1.5014    0.0000 </r>
       <r>    1.5941    0.0000 </r>
       <r>    1.6540    0.0000 </r>
       <r>    1.7001    0.0000 </r>
       <r>    1.7132    0.0000 </r>
       <r>    1.7626    0.0000 </r>
       <r>    1.8309    0.0000 </r>
       <r>    1.8767    0.0000 </r>
      </set>
      <set comment="kpoint 7">
       <r>  -22.4326    1.0000 </r>
       <r>  -22.3628    1.0000 </r>
       <r>  -22.3429    1.0000 </r>
       <r>  -20.9415    1.0000 </r>
       <r>  -20.8277    1.0000 </r>
       <r>  -20.2536    1.0000 </r>
       <r>  -20.2289    1.0000 </r>
       <r>  -19.7435    1.0000 </r>
       <r>  -19.0480    1.0000 </r>
       <r>  -18.9817    1.0000 </r>
       <r>  -18.0079    1.0000 </r>
       <r>  -17.8883    1.0000 </r>
       <r>  -17.4583    1.0000 </r>
       <r>  -17.2631    1.0000 </r>
       <r>  -17.2482    1.0000 </r>
       <r>  -17.1478    1.0000 </r>
       <r>  -16.5979    1.0000 </r>
       <r>  -16.5731    1.0000 </r>
       <r>  -15.0065    1.0000 </r>
       <r>  -15.0008    1.0000 </r>
       <r>  -14.6558    1.0000 </r>
       <r>  -14.2860    1.0000 </r>
       <r>  -14.2061    1.0000 </r>
       <r>  -14.1966    1.0000 </r>
       <r>  -13.7940    1.0000 </r>
       <r>  -13.7327    1.0000 </r>
       <r>  -13.2894    1.0000 </r>
       <r>  -13.2039    1.0000 </r>
       <r>  -12.6039    1.0000 </r>
       <r>  -12.2445    1.0000 </r>
       <r>  -12.0396    1.0000 </r>
       <r>  -11.9975    1.0000 </r>
       <r>  -11.9513    1.0000 </r>
       <r>  -11.3551    1.0000 </r>
       <r>  -11.3036    1.0000 </r>
       <r>  -11.1406    1.0000 </r>
       <r>  -10.9315    1.0000 </r>
       <r>  -10.8594    1.0000 </r>
       <r>  -10.6812    1.0000 </r>
       <r>  -10.6730    1.0000 </r>
       <r>  -10.5620    1.0000 </r>
       <r>  -10.1077    1.0000 </r>
       <r>  -10.0708    1.0000 </r>
       <r>   -9.9692    1.0000 </r>
       <r>   -9.9170    1.0000 </r>
       <r>   -9.5554    1.0000 </r>
       <r>   -9.5334    1.0000 </r>
       <r>   -9.4290    1.0000 </r>
       <r>   -9.2598    1.0000 </r>
       <r>   -9.2494    1.0000 </r>
       <r>   -8.7131    1.0000 </r>
       <r>   -8.7061    1.0000 </r>
       <r>   -8.6143    1.0000 </r>
       <r>   -8.4948    1.0000 </r>
       <r>   -8.4687    1.0000 </r>
       <r>   -8.4118    1.0000 </r>
       <r>   -8.0739    1.0000 </r>
       <r>   -7.9918    1.0000 </r>
       <r>   -7.8218    1.0000 </r>
       <r>   -7.7615    1.0000 </r>
       <r>   -7.6170    1.0000 </r>
       <r>   -7.5664    1.0000 </r>
       <r>   -7.4056    1.0000 </r>
       <r>   -7.0580    1.0000 </r>
       <r>   -7.0491    1.0000 </r>
       <r>   -6.7893    1.0000 </r>
       <r>   -6.7726    1.0000 </r>
       <r>   -6.7361    1.0000 </r>
       <r>   -5.6727    1.0000 </r>
       <r>   -5.6566    1.0000 </r>
       <r>   -5.4080    1.0000 </r>
       <r>   -5.3811    1.0000 </r>
       <r>   -5.3063    1.0000 </r>
       <r>   -5.2801    1.0000 </r>
       <r>   -5.1585    1.0000 </r>
       <r>   -4.2981    1.0000 </r>
       <r>   -4.2538    1.0000 </r>
       <r>   -4.1427    1.0000 </r>
       <r>   -0.8733    0.0000 </r>
       <r>   -0.8383    0.0000 </r>
       <r>   -0.5870    0.0000 </r>
       <r>   -0.5640    0.0000 </r>
       <r>   -0.4716    0.0000 </r>
       <r>   -0.3391    0.0000 </r>
       <r>   -0.3184    0.0000 </r>
       <r>   -0.2361    0.0000 </r>
       <r>    0.1421    0.0000 </r>
       <r>    0.1889    0.0000 </r>
       <r>    0.2295    0.0000 </r>
       <r>    0.2367    0.0000 </r>
       <r>    0.3440    0.0000 </r>
       <r>    0.4399    0.0000 </r>
       <r>    0.5353    0.0000 </r>
       <r>    0.6690    0.0000 </r>
       <r>    0.8420    0.0000 </r>
       <r>    0.8977    0.0000 </r>
       <r>    0.9396    0.0000 </r>
       <r>    1.0172    0.0000 </r>
       <r>    1.0777    0.0000 </r>
       <r>    1.2431    0.0000 </r>
       <r>    1.3464    0.0000 </r>
       <r>    1.3927    0.0000 </r>
       <r>    1.4299    0.0000 </r>
       <r>    1.4546    0.0000 </r>
       <r>    1.5035    0.0000 </r>
       <r>    1.5922    0.0000 </r>
       <r>    1.6492    0.0000 </r>
       <r>    1.6976    0.0000 </r>
       <r>    1.7151    0.0000 </r>
       <r>    1.7710    0.0000 </r>
       <r>    1.8602    0.0000 </r>
       <r>    1.8833    0.0000 </r>
      </set>
      <set comment="kpoint 8">
       <r>  -22.4325    1.0000 </r>
       <r>  -22.3628    1.0000 </r>
       <r>  -22.3429    1.0000 </r>
       <r>  -20.9408    1.0000 </r>
       <r>  -20.8293    1.0000 </r>
       <r>  -20.2536    1.0000 </r>
       <r>  -20.2226    1.0000 </r>
       <r>  -19.7568    1.0000 </r>
       <r>  -19.0480    1.0000 </r>
       <r>  -18.9622    1.0000 </r>
       <r>  -18.0407    1.0000 </r>
       <r>  -17.8884    1.0000 </r>
       <r>  -17.4346    1.0000 </r>
       <r>  -17.2635    1.0000 </r>
       <r>  -17.2482    1.0000 </r>
       <r>  -17.1396    1.0000 </r>
       <r>  -16.6077    1.0000 </r>
       <r>  -16.5731    1.0000 </r>
       <r>  -15.0067    1.0000 </r>
       <r>  -14.9974    1.0000 </r>
       <r>  -14.6676    1.0000 </r>
       <r>  -14.2865    1.0000 </r>
       <r>  -14.2061    1.0000 </r>
       <r>  -14.1988    1.0000 </r>
       <r>  -13.7938    1.0000 </r>
       <r>  -13.7132    1.0000 </r>
       <r>  -13.2947    1.0000 </r>
       <r>  -13.2040    1.0000 </r>
       <r>  -12.5958    1.0000 </r>
       <r>  -12.2447    1.0000 </r>
       <r>  -12.0449    1.0000 </r>
       <r>  -11.9975    1.0000 </r>
       <r>  -11.9675    1.0000 </r>
       <r>  -11.3527    1.0000 </r>
       <r>  -11.3039    1.0000 </r>
       <r>  -11.1377    1.0000 </r>
       <r>  -10.9308    1.0000 </r>
       <r>  -10.8588    1.0000 </r>
       <r>  -10.6817    1.0000 </r>
       <r>  -10.6733    1.0000 </r>
       <r>  -10.5625    1.0000 </r>
       <r>  -10.1039    1.0000 </r>
       <r>  -10.0584    1.0000 </r>
       <r>   -9.9723    1.0000 </r>
       <r>   -9.9170    1.0000 </r>
       <r>   -9.5581    1.0000 </r>
       <r>   -9.5333    1.0000 </r>
       <r>   -9.4279    1.0000 </r>
       <r>   -9.2655    1.0000 </r>
       <r>   -9.2488    1.0000 </r>
       <r>   -8.7090    1.0000 </r>
       <r>   -8.7056    1.0000 </r>
       <r>   -8.6105    1.0000 </r>
       <r>   -8.4949    1.0000 </r>
       <r>   -8.4661    1.0000 </r>
       <r>   -8.4157    1.0000 </r>
       <r>   -8.0894    1.0000 </r>
       <r>   -8.0083    1.0000 </r>
       <r>   -7.8217    1.0000 </r>
       <r>   -7.7467    1.0000 </r>
       <r>   -7.6199    1.0000 </r>
       <r>   -7.5569    1.0000 </r>
       <r>   -7.4017    1.0000 </r>
       <r>   -7.0572    1.0000 </r>
       <r>   -7.0541    1.0000 </r>
       <r>   -6.7881    1.0000 </r>
       <r>   -6.7723    1.0000 </r>
       <r>   -6.7346    1.0000 </r>
       <r>   -5.6725    1.0000 </r>
       <r>   -5.6562    1.0000 </r>
       <r>   -5.4093    1.0000 </r>
       <r>   -5.3786    1.0000 </r>
       <r>   -5.3046    1.0000 </r>
       <r>   -5.2797    1.0000 </r>
       <r>   -5.1627    1.0000 </r>
       <r>   -4.2983    1.0000 </r>
       <r>   -4.2537    1.0000 </r>
       <r>   -4.1434    1.0000 </r>
       <r>   -0.8750    0.0000 </r>
       <r>   -0.8384    0.0000 </r>
       <r>   -0.5832    0.0000 </r>
       <r>   -0.5641    0.0000 </r>
       <r>   -0.4710    0.0000 </r>
       <r>   -0.3339    0.0000 </r>
       <r>   -0.3192    0.0000 </r>
       <r>   -0.2352    0.0000 </r>
       <r>    0.1330    0.0000 </r>
       <r>    0.1852    0.0000 </r>
       <r>    0.2292    0.0000 </r>
       <r>    0.2317    0.0000 </r>
       <r>    0.3450    0.0000 </r>
       <r>    0.4374    0.0000 </r>
       <r>    0.5529    0.0000 </r>
       <r>    0.6754    0.0000 </r>
       <r>    0.8284    0.0000 </r>
       <r>    0.8859    0.0000 </r>
       <r>    0.9405    0.0000 </r>
       <r>    1.0240    0.0000 </r>
       <r>    1.0843    0.0000 </r>
       <r>    1.2522    0.0000 </r>
       <r>    1.3271    0.0000 </r>
       <r>    1.3933    0.0000 </r>
       <r>    1.4287    0.0000 </r>
       <r>    1.4439    0.0000 </r>
       <r>    1.5125    0.0000 </r>
       <r>    1.5859    0.0000 </r>
       <r>    1.6344    0.0000 </r>
       <r>    1.7045    0.0000 </r>
       <r>    1.7114    0.0000 </r>
       <r>    1.7830    0.0000 </r>
       <r>    1.8956    0.0000 </r>
       <r>    1.8975    0.0000 </r>
      </set>
      <set comment="kpoint 9">
       <r>  -22.4325    1.0000 </r>
       <r>  -22.3629    1.0000 </r>
       <r>  -22.3429    1.0000 </r>
       <r>  -20.9400    1.0000 </r>
       <r>  -20.8311    1.0000 </r>
       <r>  -20.2536    1.0000 </r>
       <r>  -20.2155    1.0000 </r>
       <r>  -19.7710    1.0000 </r>
       <r>  -19.0480    1.0000 </r>
       <r>  -18.9409    1.0000 </r>
       <r>  -18.0743    1.0000 </r>
       <r>  -17.8884    1.0000 </r>
       <r>  -17.4121    1.0000 </r>
       <r>  -17.2640    1.0000 </r>
       <r>  -17.2482    1.0000 </r>
       <r>  -17.1297    1.0000 </r>
       <r>  -16.6188    1.0000 </r>
       <r>  -16.5731    1.0000 </r>
       <r>  -15.0068    1.0000 </r>
       <r>  -14.9934    1.0000 </r>
       <r>  -14.6804    1.0000 </r>
       <r>  -14.2869    1.0000 </r>
       <r>  -14.2061    1.0000 </r>
       <r>  -14.2009    1.0000 </r>
       <r>  -13.7935    1.0000 </r>
       <r>  -13.6922    1.0000 </r>
       <r>  -13.3010    1.0000 </r>
       <r>  -13.2041    1.0000 </r>
       <r>  -12.5865    1.0000 </r>
       <r>  -12.2449    1.0000 </r>
       <r>  -12.0535    1.0000 </r>
       <r>  -11.9975    1.0000 </r>
       <r>  -11.9822    1.0000 </r>
       <r>  -11.3504    1.0000 </r>
       <r>  -11.3042    1.0000 </r>
       <r>  -11.1347    1.0000 </r>
       <r>  -10.9300    1.0000 </r>
       <r>  -10.8581    1.0000 </r>
       <r>  -10.6823    1.0000 </r>
       <r>  -10.6736    1.0000 </r>
       <r>  -10.5632    1.0000 </r>
       <r>  -10.1002    1.0000 </r>
       <r>  -10.0443    1.0000 </r>
       <r>   -9.9757    1.0000 </r>
       <r>   -9.9170    1.0000 </r>
       <r>   -9.5612    1.0000 </r>
       <r>   -9.5332    1.0000 </r>
       <r>   -9.4267    1.0000 </r>
       <r>   -9.2718    1.0000 </r>
       <r>   -9.2481    1.0000 </r>
       <r>   -8.7050    1.0000 </r>
       <r>   -8.7045    1.0000 </r>
       <r>   -8.6063    1.0000 </r>
       <r>   -8.4951    1.0000 </r>
       <r>   -8.4632    1.0000 </r>
       <r>   -8.4200    1.0000 </r>
       <r>   -8.1056    1.0000 </r>
       <r>   -8.0244    1.0000 </r>
       <r>   -7.8216    1.0000 </r>
       <r>   -7.7318    1.0000 </r>
       <r>   -7.6231    1.0000 </r>
       <r>   -7.5487    1.0000 </r>
       <r>   -7.3962    1.0000 </r>
       <r>   -7.0597    1.0000 </r>
       <r>   -7.0564    1.0000 </r>
       <r>   -6.7869    1.0000 </r>
       <r>   -6.7719    1.0000 </r>
       <r>   -6.7329    1.0000 </r>
       <r>   -5.6722    1.0000 </r>
       <r>   -5.6557    1.0000 </r>
       <r>   -5.4108    1.0000 </r>
       <r>   -5.3759    1.0000 </r>
       <r>   -5.3027    1.0000 </r>
       <r>   -5.2793    1.0000 </r>
       <r>   -5.1675    1.0000 </r>
       <r>   -4.2984    1.0000 </r>
       <r>   -4.2536    1.0000 </r>
       <r>   -4.1443    1.0000 </r>
       <r>   -0.8768    0.0000 </r>
       <r>   -0.8385    0.0000 </r>
       <r>   -0.5790    0.0000 </r>
       <r>   -0.5642    0.0000 </r>
       <r>   -0.4705    0.0000 </r>
       <r>   -0.3281    0.0000 </r>
       <r>   -0.3200    0.0000 </r>
       <r>   -0.2341    0.0000 </r>
       <r>    0.1235    0.0000 </r>
       <r>    0.1804    0.0000 </r>
       <r>    0.2220    0.0000 </r>
       <r>    0.2337    0.0000 </r>
       <r>    0.3486    0.0000 </r>
       <r>    0.4346    0.0000 </r>
       <r>    0.5691    0.0000 </r>
       <r>    0.6825    0.0000 </r>
[...]
       <r>    0.8624    0.0000 </r>
       <r>    0.9304    0.0000 </r>
       <r>    0.9692    0.0000 </r>
       <r>    1.0679    0.0000 </r>
       <r>    1.0684    0.0000 </r>
       <r>    1.0937    0.0000 </r>
       <r>    1.4017    0.0000 </r>
       <r>    1.4048    0.0000 </r>
       <r>    1.4430    0.0000 </r>
       <r>    1.5233    0.0000 </r>
       <r>    1.5468    0.0000 </r>
       <r>    1.5692    0.0000 </r>
       <r>    1.6735    0.0000 </r>
       <r>    1.6815    0.0000 </r>
       <r>    1.6905    0.0000 </r>
       <r>    1.7194    0.0000 </r>
       <r>    1.7717    0.0000 </r>
       <r>    1.8794    0.0000 </r>
      </set>
     </set>
    </set>
   </array>
  </eigenvalues>
  <separator name="orbital magnetization" >
   <v name="MAGDIPOLOUT">      0.00000000      0.00000000      0.00000000</v>
  </separator>
  <dos>
   <i name="efermi">     -4.09203658 </i>
   <total>
    <array>
     <dimension dim="1">gridpoints</dimension>
     <dimension dim="2">spin</dimension>
     <field>energy</field>
     <field>total</field>
     <field>integrated</field>
     <set>
      <set comment="spin 1">
       <r>   -23.6550     0.0000     0.0000 </r>
       <r>   -23.5653     0.0000     0.0000 </r>
       <r>   -23.4757     0.0000     0.0000 </r>
       <r>   -23.3861     0.0000     0.0000 </r>
       <r>   -23.2964     0.0000     0.0000 </r>
       <r>   -23.2068     0.0000     0.0000 </r>
       <r>   -23.1172     0.0000     0.0000 </r>
       <r>   -23.0275     0.0000     0.0000 </r>
       <r>   -22.9379     0.0000     0.0000 </r>
       <r>   -22.8483     0.0000     0.0000 </r>
       <r>   -22.7586     0.0000     0.0000 </r>
       <r>   -22.6690     0.0000     0.0000 </r>
       <r>   -22.5794     0.0000     0.0000 </r>
       <r>   -22.4897     0.0000     0.0000 </r>
       <r>   -22.4001    22.3125     2.0000 </r>
       <r>   -22.3104    44.6251     6.0000 </r>
       <r>   -22.2208     0.0000     6.0000 </r>
       <r>   -22.1312     0.0000     6.0000 </r>
       <r>   -22.0415     0.0000     6.0000 </r>
       <r>   -21.9519     0.0000     6.0000 </r>
       <r>   -21.8623     0.0000     6.0000 </r>
       <r>   -21.7726     0.0000     6.0000 </r>
       <r>   -21.6830     0.0000     6.0000 </r>
       <r>   -21.5934     0.0000     6.0000 </r>
       <r>   -21.5037     0.0000     6.0000 </r>
       <r>   -21.4141     0.0000     6.0000 </r>
       <r>   -21.3245     0.0000     6.0000 </r>
       <r>   -21.2348     0.0000     6.0000 </r>
       <r>   -21.1452     0.0000     6.0000 </r>
       <r>   -21.0556     0.0000     6.0000 </r>
       <r>   -20.9659     0.0033     6.0003 </r>
       <r>   -20.8763    22.3095     8.0000 </r>
       <r>   -20.7866    22.3123    10.0000 </r>
       <r>   -20.6970     0.0000    10.0000 </r>
       <r>   -20.6074     0.0000    10.0000 </r>
       <r>   -20.5177     0.0000    10.0000 </r>
       <r>   -20.4281     0.0000    10.0000 </r>
       <r>   -20.3385     0.0000    10.0000 </r>
       <r>   -20.2488    16.6999    11.4969 </r>
       <r>   -20.1592     7.6347    12.9566 </r>
       <r>   -20.0696    10.7334    14.0000 </r>
       <r>   -19.9799     0.0000    14.0000 </r>
       <r>   -19.8903     9.2101    14.8255 </r>
       <r>   -19.8007     4.2196    15.3473 </r>
       <r>   -19.7110     4.8726    15.8061 </r>
       <r>   -19.6214     0.6882    16.0000 </r>
       <r>   -19.5317     0.0000    16.0000 </r>
       <r>   -19.4421     0.0000    16.0000 </r>
       <r>   -19.3525     0.0000    16.0000 </r>
       <r>   -19.2628     0.0000    16.0000 </r>
       <r>   -19.1732     0.0000    16.0000 </r>
       <r>   -19.0836     0.0000    16.0000 </r>
       <r>   -18.9939    26.3802    18.3646 </r>
       <r>   -18.9043     2.5768    18.6324 </r>
       <r>   -18.8147     2.4818    18.8586 </r>
       <r>   -18.7250     4.2198    19.2453 </r>
       <r>   -18.6354     7.0087    19.9989 </r>
       <r>   -18.5458     0.0000    20.0000 </r>
       <r>   -18.4561     0.0140    20.0013 </r>
       <r>   -18.3665     6.8714    20.6172 </r>
       <r>   -18.2769     4.2166    21.0819 </r>
       <r>   -18.1872     1.4791    21.2659 </r>
       <r>   -18.0976     1.8166    21.4313 </r>
       <r>   -18.0079     1.7431    21.5897 </r>
       <r>   -17.9183     1.7907    21.7938 </r>
       <r>   -17.8287    24.1676    24.0000 </r>
       <r>   -17.7390     0.0000    24.0000 </r>
       <r>   -17.6494     0.0000    24.0000 </r>
       <r>   -17.5598     0.5471    24.0490 </r>
       <r>   -17.4701     2.6611    24.3723 </r>
       <r>   -17.3805     2.5190    24.6274 </r>
       <r>   -17.2909     9.9783    25.5614 </r>
       <r>   -17.2012    44.5785    30.0000 </r>
       <r>   -17.1116     6.9588    30.6238 </r>
       <r>   -17.0220     3.0182    30.9386 </r>
       <r>   -16.9323     7.4083    31.6327 </r>
       <r>   -16.8427     3.4153    32.0072 </r>
       <r>   -16.7530     9.4171    32.8513 </r>
       <r>   -16.6634     3.3520    33.2673 </r>
       <r>   -16.5738    15.5826    34.6982 </r>
       <r>   -16.4841     0.0000    36.0000 </r>
       <r>   -16.3945     0.0000    36.0000 </r>
       <r>   -16.3049     0.0000    36.0000 </r>
       <r>   -16.2152     0.0000    36.0000 </r>
       <r>   -16.1256     0.0000    36.0000 </r>
       <r>   -16.0360     0.0000    36.0000 </r>
       <r>   -15.9463     0.0000    36.0000 </r>
       <r>   -15.8567     0.0000    36.0000 </r>
       <r>   -15.7671     0.0000    36.0000 </r>
       <r>   -15.6774     0.0000    36.0000 </r>
       <r>   -15.5878     0.0000    36.0000 </r>
       <r>   -15.4982     0.0000    36.0000 </r>
       <r>   -15.4085     0.0000    36.0000 </r>
       <r>   -15.3189     0.0000    36.0000 </r>
       <r>   -15.2292     0.0000    36.0000 </r>
       <r>   -15.1396     0.0000    36.0000 </r>
       <r>   -15.0500     0.0000    36.0000 </r>
       <r>   -14.9603    32.5738    38.9198 </r>
       <r>   -14.8707    10.6919    40.0000 </r>
       <r>   -14.7811    10.7869    40.9669 </r>
       <r>   -14.6914     4.2932    41.4203 </r>
       <r>   -14.6018     5.9173    41.9991 </r>
       <r>   -14.5122     0.0000    42.0000 </r>
       <r>   -14.4225     0.0000    42.0000 </r>
       <r>   -14.3329     0.0000    42.0000 </r>
       <r>   -14.2433    22.3127    44.0000 </r>
       <r>   -14.1536    44.6251    48.0000 </r>
       <r>   -14.0640     0.0000    48.0000 </r>
       <r>   -13.9743     0.0000    48.0000 </r>
       <r>   -13.8847     0.0000    48.0000 </r>
       <r>   -13.7951     7.8387    48.7026 </r>
       <r>   -13.7054     3.6356    50.4953 </r>
       <r>   -13.6158     2.7209    50.7460 </r>
       <r>   -13.5262     2.6055    51.0009 </r>
       <r>   -13.4365    10.3123    51.9599 </r>
       <r>   -13.3469    12.2271    53.0971 </r>
       <r>   -13.2573     9.6147    53.9989 </r>
       <r>   -13.1676    22.3124    56.0000 </r>
       <r>   -13.0780     0.0000    56.0000 </r>
       <r>   -12.9884     0.0000    56.0000 </r>
       <r>   -12.8987     0.0000    56.0000 </r>
       <r>   -12.8091     0.0000    56.0000 </r>
       <r>   -12.7195     0.0000    56.0000 </r>
       <r>   -12.6298     0.6367    56.0571 </r>
       <r>   -12.5402     6.0206    56.7765 </r>
       <r>   -12.4505     5.7978    57.3533 </r>
       <r>   -12.3609     5.1801    58.0000 </r>
       <r>   -12.2713    10.3126    58.9244 </r>
       <r>   -12.1816    22.7859    61.0463 </r>
       <r>   -12.0920     2.6758    61.3091 </r>
       <r>   -12.0024    27.5368    63.8349 </r>
       <r>   -11.9127     4.0122    65.7610 </r>
       <r>   -11.8231     2.1865    66.0000 </r>
       <r>   -11.7335     0.0000    66.0000 </r>
       <r>   -11.6438     0.0000    66.0000 </r>
       <r>   -11.5542     0.0000    66.0000 </r>
       <r>   -11.4646     0.0000    66.0000 </r>
       <r>   -11.3749     0.1745    66.0156 </r>
       <r>   -11.2853    44.4049    69.9959 </r>
       <r>   -11.1956     0.0000    70.0000 </r>
       <r>   -11.1060    18.2208    71.6332 </r>
       <r>   -11.0164     0.0000    72.0000 </r>
       <r>   -10.9267    11.0244    72.9882 </r>
       <r>   -10.8371    22.1354    75.9841 </r>
       <r>   -10.7475     0.0000    76.0000 </r>
       <r>   -10.6578    44.4171    79.9814 </r>
       <r>   -10.5682     9.4363    80.8458 </r>
       <r>   -10.4786     0.0000    82.0000 </r>
       <r>   -10.3889     0.0000    82.0000 </r>
       <r>   -10.2993     0.0000    82.0000 </r>
       <r>   -10.2097     0.0000    82.0000 </r>
       <r>   -10.1200     2.3099    82.2071 </r>
       <r>   -10.0304    24.7420    84.5891 </r>
       <r>    -9.9408    25.5523    86.9308 </r>
       <r>    -9.8511    31.9279    89.9114 </r>
       <r>    -9.7615     0.0000    90.0000 </r>
       <r>    -9.6718     0.0000    90.0000 </r>
       <r>    -9.5822    12.9371    91.1596 </r>
       <r>    -9.4926    30.0969    94.0000 </r>
       <r>    -9.4029    18.9779    95.7011 </r>
       <r>    -9.3133    12.6444    97.1334 </r>
       <r>    -9.2237    31.0119    99.9830 </r>
       <r>    -9.1340     0.0000   100.0000 </r>
       <r>    -9.0444     0.0000   100.0000 </r>
       <r>    -8.9548     0.0000   100.0000 </r>
       <r>    -8.8651     0.0000   100.0000 </r>
       <r>    -8.7755     0.0000   100.0000 </r>
       <r>    -8.6859    30.0969   102.6978 </r>
       <r>    -8.5962    20.3342   104.6583 </r>
       <r>    -8.5066    18.8774   106.4944 </r>
       <r>    -8.4169    46.7231   111.3661 </r>
       <r>    -8.3273     3.6171   112.0000 </r>
       <r>    -8.2377     6.1857   112.5545 </r>
       <r>    -8.1480     4.3243   113.3218 </r>
       <r>    -8.0584    17.9190   114.9850 </r>
       <r>    -7.9688     6.8129   115.6799 </r>
       <r>    -7.8791     3.3138   116.0000 </r>
       <r>    -7.7895    25.4761   118.2836 </r>
       <r>    -7.6999     3.9735   118.6905 </r>
       <r>    -7.6102    26.7397   121.1153 </r>
       <r>    -7.5206    26.1611   123.9866 </r>
       <r>    -7.4310     0.0117   124.0010 </r>
       <r>    -7.3413     9.6594   124.8669 </r>
       <r>    -7.2517     9.0698   125.7159 </r>
       <r>    -7.1621     6.0451   126.3454 </r>
       <r>    -7.0724    11.0496   127.4260 </r>
       <r>    -6.9828    27.2839   130.0000 </r>
       <r>    -6.8931     0.0000   130.0000 </r>
       <r>    -6.8035     0.2580   130.0231 </r>
       <r>    -6.7139    65.0240   135.8516 </r>
       <r>    -6.6242     0.0000   136.0000 </r>
       <r>    -6.5346     0.0000   136.0000 </r>
       <r>    -6.4450     0.0000   136.0000 </r>
       <r>    -6.3553     0.0000   136.0000 </r>
       <r>    -6.2657     0.0000   136.0000 </r>
       <r>    -6.1761     0.0000   136.0000 </r>
       <r>    -6.0864     0.0000   136.0000 </r>
       <r>    -5.9968     0.0000   136.0000 </r>
       <r>    -5.9072     0.0000   136.0000 </r>
       <r>    -5.8175     0.0000   136.0000 </r>
       <r>    -5.7279     0.0000   136.0000 </r>
       <r>    -5.6382    43.9729   139.9415 </r>
       <r>    -5.5486     0.0000   140.0000 </r>
       <r>    -5.4590     0.0000   140.0000 </r>
       <r>    -5.3693    30.3334   142.7189 </r>
       <r>    -5.2797    34.7150   146.0667 </r>
       <r>    -5.1901    24.6323   149.2137 </r>
       <r>    -5.1004     7.7675   150.0000 </r>
       <r>    -5.0108     0.0000   150.0000 </r>
       <r>    -4.9212     0.0000   150.0000 </r>
       <r>    -4.8315     0.0000   150.0000 </r>
       <r>    -4.7419     0.0000   150.0000 </r>
       <r>    -4.6523     0.0000   150.0000 </r>
       <r>    -4.5626     0.0000   150.0000 </r>
       <r>    -4.4730     0.0000   150.0000 </r>
       <r>    -4.3834     0.0000   150.0000 </r>
       <r>    -4.2937    15.3495   151.3759 </r>
       <r>    -4.2041    22.3126   154.0000 </r>
       <r>    -4.1144    22.3121   156.0000 </r>
       <r>    -4.0248     0.0000   156.0000 </r>
       <r>    -3.9352     0.0000   156.0000 </r>
       <r>    -3.8455     0.0000   156.0000 </r>
       <r>    -3.7559     0.0000   156.0000 </r>
       <r>    -3.6663     0.0000   156.0000 </r>
       <r>    -3.5766     0.0000   156.0000 </r>
       <r>    -3.4870     0.0000   156.0000 </r>
       <r>    -3.3974     0.0000   156.0000 </r>
       <r>    -3.3077     0.0000   156.0000 </r>
       <r>    -3.2181     0.0000   156.0000 </r>
       <r>    -3.1285     0.0000   156.0000 </r>
       <r>    -3.0388     0.0000   156.0000 </r>
       <r>    -2.9492     0.0000   156.0000 </r>
       <r>    -2.8595     0.0000   156.0000 </r>
       <r>    -2.7699     0.0000   156.0000 </r>
       <r>    -2.6803     0.0000   156.0000 </r>
       <r>    -2.5906     0.0000   156.0000 </r>
       <r>    -2.5010     0.0000   156.0000 </r>
       <r>    -2.4114     0.0000   156.0000 </r>
       <r>    -2.3217     0.0000   156.0000 </r>
       <r>    -2.2321     0.0000   156.0000 </r>
       <r>    -2.1425     0.0000   156.0000 </r>
       <r>    -2.0528     0.0000   156.0000 </r>
       <r>    -1.9632     0.0000   156.0000 </r>
       <r>    -1.8736     0.0000   156.0000 </r>
       <r>    -1.7839     0.0000   156.0000 </r>
       <r>    -1.6943     0.0000   156.0000 </r>
       <r>    -1.6047     0.0000   156.0000 </r>
       <r>    -1.5150     0.0000   156.0000 </r>
       <r>    -1.4254     0.0000   156.0000 </r>
       <r>    -1.3357     0.0000   156.0000 </r>
       <r>    -1.2461     0.0000   156.0000 </r>
       <r>    -1.1565     0.0000   156.0000 </r>
       <r>    -1.0668     0.0000   156.0000 </r>
       <r>    -0.9772     0.0000   156.0000 </r>
       <r>    -0.8876     7.0221   156.6294 </r>
       <r>    -0.7979    29.2568   160.0000 </r>
       <r>    -0.7083     0.0000   160.0000 </r>
       <r>    -0.6187     0.2000   160.0179 </r>
       <r>    -0.5290    42.1498   163.8551 </r>
       <r>    -0.4394    21.5293   165.9298 </r>
       <r>    -0.3498     2.9660   166.2659 </r>
       <r>    -0.2601    33.8111   169.6859 </r>
       <r>    -0.1705    22.3060   171.9998 </r>
       <r>    -0.0808     0.0000   172.0000 </r>
       <r>     0.0088     0.4116   172.0369 </r>
       <r>     0.0984    12.9703   173.3397 </r>
       <r>     0.1881    32.2796   176.2945 </r>
       <r>     0.2777    31.5427   179.9996 </r>
       <r>     0.3673     5.9237   180.5310 </r>
       <r>     0.4570    33.1146   183.5910 </r>
       <r>     0.5466     7.1239   184.4429 </r>
       <r>     0.6362    16.1403   185.9468 </r>
       <r>     0.7259    17.3331   187.7282 </r>
       <r>     0.8155    12.4818   188.9892 </r>
       <r>     0.9051    23.2771   191.1880 </r>
       <r>     0.9948    29.5825   194.0273 </r>
       <r>     1.0844    26.2170   196.4529 </r>
       <r>     1.1740    22.2687   198.7678 </r>
       <r>     1.2637    23.0324   200.9689 </r>
       <r>     1.3533    19.1357   202.9184 </r>
       <r>     1.4430    39.8509   206.6076 </r>
       <r>     1.5326    31.5965   209.8057 </r>
       <r>     1.6222    18.5071   211.6664 </r>
       <r>     1.7119    31.7795   214.6588 </r>
       <r>     1.8015    34.7624   218.3272 </r>
       <r>     1.8911    21.9855   220.5752 </r>
       <r>     1.9808    19.7923   222.6444 </r>
       <r>     2.0704    11.7645   224.0000 </r>
       <r>     2.1600     0.0000   224.0000 </r>
       <r>     2.2497     0.0000   224.0000 </r>
       <r>     2.3393     0.0000   224.0000 </r>
       <r>     2.4289     0.0000   224.0000 </r>
       <r>     2.5186     0.0000   224.0000 </r>
       <r>     2.6082     0.0000   224.0000 </r>
       <r>     2.6979     0.0000   224.0000 </r>
       <r>     2.7875     0.0000   224.0000 </r>
       <r>     2.8771     0.0000   224.0000 </r>
       <r>     2.9668     0.0000   224.0000 </r>
       <r>     3.0564     0.0000   224.0000 </r>
       <r>     3.1460     0.0000   224.0000 </r>
       <r>     3.2357     0.0000   224.0000 </r>
      </set>
     </set>
    </array>
   </total>
  </dos>
 </calculation>
 <structure name="finalpos" >
  <crystal>
   <varray name="basis" >
    <v>      14.92043461      -0.01764367       0.00000000 </v>
    <v>       7.44493744      12.93029725       0.00000000 </v>
    <v>       0.00000000       0.00000000      20.00000000 </v>
   </varray>
   <i name="volume">   3861.14021229 </i>
   <varray name="rec_basis" >
    <v>       0.06697657      -0.03856341       0.00000000 </v>
    <v>       0.00009139       0.07728512       0.00000000 </v>
    <v>       0.00000000       0.00000000       0.05000000 </v>
   </varray>
  </crystal>
  <varray name="positions" >
   <v>       0.58349560       0.74653277       0.51522185 </v>
   <v>       0.52578578       0.86172205       0.51578011 </v>
   <v>       0.49630107       0.91481430       0.57657414 </v>
   <v>       0.69180324       0.69180324       0.51503716 </v>
   <v>       0.74653277       0.58349560       0.51522185 </v>
   <v>       0.58326732       0.58326732       0.51515062 </v>
   <v>       0.52993509       0.69156759       0.51523531 </v>
   <v>       0.69156759       0.52993509       0.51523531 </v>
   <v>       0.52556191       0.52556191       0.51534403 </v>
   <v>       0.49887529       0.49887529       0.57607590 </v>
   <v>       0.86172205       0.52578578       0.51578011 </v>
   <v>       0.91481430       0.49630107       0.57657414 </v>
   <v>       0.50023711       0.91786473       0.45581906 </v>
   <v>       0.49764103       0.49764103       0.45518501 </v>
   <v>       0.91786473       0.50023711       0.45581906 </v>
   <v>       0.25016208       0.41174502       0.51895362 </v>
   <v>       0.44439288       0.44439288       0.57829521 </v>
   <v>       0.41632796       0.41632796       0.51741480 </v>
   <v>       0.02344618       0.44142444       0.57897706 </v>
   <v>       0.07974169       0.41584617       0.51835757 </v>
   <v>       0.44360485       0.44360485       0.45702508 </v>
   <v>       0.02566966       0.44590545       0.45784309 </v>
   <v>       0.35828528       0.19491792       0.51925980 </v>
   <v>       0.24989221       0.24989221       0.52017460 </v>
   <v>       0.19491792       0.35828528       0.51925980 </v>
   <v>       0.35862801       0.35862801       0.51841910 </v>
   <v>       0.41174502       0.25016208       0.51895362 </v>
   <v>       0.44142444       0.02344618       0.57897706 </v>
   <v>       0.41584617       0.07974169       0.51835757 </v>
   <v>       0.44590545       0.02566966       0.45784309 </v>
   <v>       0.41873749       0.41873749       0.63874138 </v>
   <v>       0.07470623       0.40920137       0.64001665 </v>
   <v>       0.40920137       0.07470623       0.64001665 </v>
   <v>       0.44558588       0.73369606       0.51530020 </v>
   <v>       0.73405878       0.73405878       0.51504487 </v>
   <v>       0.51621870       0.87083432       0.62319976 </v>
   <v>       0.20805552       0.49610699       0.51819990 </v>
   <v>       0.52081084       0.52081084       0.62279104 </v>
   <v>       0.87083432       0.51621870       0.62319976 </v>
   <v>       0.52275222       0.87715125       0.40812213 </v>
   <v>       0.51817924       0.51817924       0.40756980 </v>
   <v>       0.87715125       0.52275222       0.40812213 </v>
   <v>       0.73369606       0.44558588       0.51530020 </v>
   <v>       0.43852156       0.43852156       0.68219452 </v>
   <v>       0.03477505       0.45010514       0.68070291 </v>
   <v>       0.42160000       0.42160000       0.41041717 </v>
   <v>       0.06981969       0.42587652       0.41135599 </v>
   <v>       0.49610699       0.20805552       0.51819990 </v>
   <v>       0.20764584       0.20764584       0.52079489 </v>
   <v>       0.37968715       0.37968715       0.64015055 </v>
   <v>       0.14978176       0.39141125       0.63996322 </v>
   <v>       0.45010514       0.03477505       0.68070291 </v>
   <v>       0.39141125       0.14978176       0.63996322 </v>
   <v>       0.42587652       0.06981969       0.41135599 </v>
  </varray>
 </structure>
</modeling>
