<?xml version="1.0" encoding="ISO-8859-1"?>
<modeling>
 <generator>
  <i name="program" type="string">vasp </i>
  <i name="version" type="string">5.4.4.18Apr17-6-g9f103f2a35  </i>
  <i name="subversion" type="string">(build Jun 07 2020 16:50:00) complex            parallel </i>
  <i name="platform" type="string">LinuxIFC </i>
  <i name="date" type="string">2023 03 02 </i>
  <i name="time" type="string">03:56:36 </i>
 </generator>
 <incar>
  <i type="string" name="SYSTEM">Simulation for cell shape cell volume r</i>
  <i type="int" name="ISTART">     1</i>
  <i type="string" name="PREC">high</i>
  <i type="string" name="ALGO">48</i>
  <i type="int" name="ICHARG">    11</i>
  <i type="int" name="NELM">   200</i>
  <i type="int" name="IBRION">    -1</i>
  <i name="EDIFF">      0.00001000</i>
  <i name="EDIFFG">     -0.01000000</i>
  <i type="int" name="NSW">     0</i>
  <i type="int" name="ISIF">     2</i>
  <i name="ENCUT">    500.00000000</i>
  <i name="POTIM">      0.30000000</i>
  <i type="string" name="LREAL">A</i>
  <i type="int" name="ISMEAR">     0</i>
  <i name="SIGMA">      0.01000000</i>
  <i type="int" name="NWRITE">     0</i>
  <i type="logical" name="LWAVE"> F  </i>
  <i type="logical" name="LCHARG"> F  </i>
  <v type="int" name="KPOINT_BSE">    -1     0     0     0</v>
  <i type="int" name="NELM">   200</i>
  <i type="string" name="GGA">PE</i>
 </incar>
 <structure name="primitive_cell" >
  <crystal>
   <varray name="basis" >
    <v>      25.37746474      -0.06525064       0.00000000 </v>
    <v>      -0.08176670      25.38496765       0.00000000 </v>
    <v>       0.00000000       0.00000000      20.00000000 </v>
   </varray>
   <i name="volume">  12884.01572154 </i>
   <varray name="rec_basis" >
    <v>       0.03940537       0.00012693       0.00000000 </v>
    <v>       0.00010129       0.03939372       0.00000000 </v>
    <v>       0.00000000       0.00000000       0.05000000 </v>
   </varray>
  </crystal>
  <varray name="positions" >
   <v>      -0.01364405       0.45925922       0.41272875 </v>
   <v>      -0.01550446      -0.48848950       0.41279210 </v>
   <v>      -0.00201514       0.43522199       0.47095728 </v>
   <v>      -0.02485850      -0.46873598       0.36572937 </v>
   <v>      -0.00038506       0.38060581       0.46932913 </v>
   <v>      -0.00561154      -0.45814028       0.47074336 </v>
   <v>       0.01024841       0.46551822      -0.47094861 </v>
   <v>       0.00742015      -0.48205213      -0.47184901 </v>
   <v>      -0.02697912       0.35232646      -0.48903129 </v>
   <v>      -0.00969246      -0.40352961       0.46552076 </v>
   <v>      -0.05377720       0.37049336      -0.45211898 </v>
   <v>       0.06919759       0.39178560      -0.45499512 </v>
   <v>       0.02775770       0.44213639      -0.40485467 </v>
   <v>       0.06282672       0.40150128      -0.40830277 </v>
   <v>       0.01692771       0.28937619       0.41745822 </v>
   <v>      -0.02376144       0.29501151      -0.48814178 </v>
   <v>       0.00537870      -0.37445831      -0.48485721 </v>
   <v>       0.01319649       0.45858779      -0.35107500 </v>
   <v>       0.02166207      -0.39208281      -0.43891155 </v>
   <v>       0.00074325       0.26726886       0.45953710 </v>
   <v>      -0.02851395      -0.31338195       0.41255561 </v>
   <v>      -0.04569821       0.26670882      -0.43442878 </v>
   <v>      -0.06448593       0.28799316      -0.39348195 </v>
   <v>       0.00196436      -0.31723648      -0.48697137 </v>
   <v>       0.00291258       0.21267797       0.46114293 </v>
   <v>      -0.01652274      -0.29037850       0.45607171 </v>
   <v>       0.02085240       0.19123720       0.41980670 </v>
   <v>      -0.04269511       0.21197213      -0.43253191 </v>
   <v>       0.01795943      -0.28775957      -0.43088353 </v>
   <v>       0.03215336      -0.30826904      -0.38644520 </v>
   <v>      -0.01872218       0.18405134      -0.48493111 </v>
   <v>      -0.01880605      -0.23575460       0.45557759 </v>
   <v>      -0.05897729       0.19027755      -0.39017698 </v>
   <v>       0.08792046       0.17326979      -0.47805785 </v>
   <v>      -0.12324305       0.16433652      -0.48839488 </v>
   <v>      -0.03263551      -0.21506178       0.41114818 </v>
   <v>       0.01558099      -0.23297974      -0.43151507 </v>
   <v>      -0.01646513       0.12542885      -0.48437696 </v>
   <v>      -0.00275831      -0.20619670      -0.48830429 </v>
   <v>       0.08363591       0.13078762      -0.48021524 </v>
   <v>      -0.11597046       0.12226931      -0.48744558 </v>
   <v>      -0.10922627      -0.19573988      -0.49220065 </v>
   <v>       0.02781128      -0.21037399      -0.38775205 </v>
   <v>       0.03418810       0.10314020      -0.48323828 </v>
   <v>      -0.06450987       0.09696346      -0.48578493 </v>
   <v>       0.10123160      -0.18660472      -0.48884801 </v>
   <v>       0.12323059       0.09415345      -0.48039347 </v>
   <v>      -0.00521631      -0.14755181      -0.48892355 </v>
   <v>      -0.10514368      -0.15320184      -0.49146936 </v>
   <v>      -0.15235544       0.08280497      -0.48770734 </v>
   <v>       0.16533430       0.10159007      -0.47924008 </v>
   <v>       0.09417459      -0.14448833      -0.48764522 </v>
   <v>      -0.19492041       0.08659949      -0.48771856 </v>
   <v>       0.04573268       0.05024939      -0.48395138 </v>
   <v>      -0.05581161      -0.12536489      -0.49019770 </v>
   <v>      -0.06965691       0.04315383      -0.48660864 </v>
   <v>       0.04273874      -0.11910097      -0.48751746 </v>
   <v>       0.09941360       0.04279586      -0.48237678 </v>
   <v>      -0.12290467       0.03362604      -0.48800375 </v>
   <v>       0.01832058       0.02070493      -0.48579970 </v>
   <v>      -0.14482882      -0.11667842      -0.49176917 </v>
   <v>      -0.18686895      -0.12436036      -0.49363376 </v>
   <v>       0.13056919      -0.10504182      -0.48616341 </v>
   <v>       0.17315331      -0.10867326      -0.48510326 </v>
   <v>      -0.06750615      -0.07249218      -0.48913780 </v>
   <v>      -0.21350513       0.01887630       0.41456999 </v>
   <v>       0.04782524      -0.06532275      -0.48687190 </v>
   <v>       0.12558932      -0.00583080      -0.48384298 </v>
   <v>      -0.12117557      -0.06519856      -0.48943114 </v>
   <v>      -0.14741310      -0.01651939      -0.48874433 </v>
   <v>       0.10107132      -0.05587227      -0.48605858 </v>
   <v>      -0.04014356      -0.04288186      -0.48766501 </v>
   <v>       0.19008198       0.02534575      -0.38225466 </v>
   <v>      -0.23484989       0.00138863       0.45647067 </v>
   <v>       0.18431620      -0.00372700      -0.48344682 </v>
   <v>       0.21199374       0.01365161      -0.42671872 </v>
   <v>      -0.20606947      -0.01903152      -0.48920742 </v>
   <v>       0.21305983      -0.01923910       0.45964478 </v>
   <v>       0.19165098      -0.03243312       0.41534240 </v>
   <v>      -0.31176162       0.01411069       0.41315810 </v>
   <v>      -0.28947685      -0.00124080       0.45543829 </v>
   <v>       0.26686447       0.01546086      -0.42682739 </v>
   <v>      -0.21194324      -0.05790702      -0.39343651 </v>
   <v>       0.28808712       0.02879393      -0.38237125 </v>
   <v>       0.26773191      -0.01753317       0.45940231 </v>
   <v>      -0.23380229      -0.04249790      -0.43604264 </v>
   <v>       0.29550927      -0.00010211      -0.48364864 </v>
   <v>      -0.41236864       0.06845622      -0.46074404 </v>
   <v>      -0.31705977      -0.02505406      -0.49134046 </v>
   <v>       0.29008311      -0.02925182       0.41534284 </v>
   <v>      -0.28856943      -0.04594032      -0.43733274 </v>
   <v>      -0.30969973      -0.06421383      -0.39571715 </v>
   <v>      -0.42155233       0.06331790      -0.41361205 </v>
   <v>       0.35282784       0.00271781      -0.48237015 </v>
   <v>       0.37127221       0.01833280      -0.43645863 </v>
   <v>      -0.40285034      -0.00302967       0.46631304 </v>
   <v>      -0.37441305      -0.02851769      -0.49142519 </v>
   <v>       0.38106052      -0.01201684       0.46722096 </v>
   <v>      -0.39250093      -0.05443510      -0.45322695 </v>
   <v>      -0.46256722       0.02840803      -0.40781192 </v>
   <v>      -0.45748016      -0.00451494       0.46913909 </v>
   <v>       0.43579309      -0.00797856       0.47127537 </v>
   <v>      -0.48690543       0.00909637      -0.47262030 </v>
   <v>       0.46061341       0.00627838      -0.47231452 </v>
   <v>      -0.48245968      -0.01718849       0.41184204 </v>
   <v>      -0.47861976       0.01540793      -0.35312787 </v>
   <v>       0.44477586      -0.02894442       0.36659713 </v>
   <v>       0.46526492      -0.01890825       0.41299886 </v>
  </varray>
 </structure>
 <varray name="primitive_index" >
  <v type="int" >        1 </v>
  <v type="int" >       59 </v>
  <v type="int" >      103 </v>
  <v type="int" >       21 </v>
  <v type="int" >       10 </v>
  <v type="int" >       60 </v>
  <v type="int" >      104 </v>
  <v type="int" >        9 </v>
  <v type="int" >      101 </v>
  <v type="int" >        2 </v>
  <v type="int" >       43 </v>
  <v type="int" >       45 </v>
  <v type="int" >      105 </v>
  <v type="int" >       48 </v>
  <v type="int" >       13 </v>
  <v type="int" >       97 </v>
  <v type="int" >       99 </v>
  <v type="int" >       47 </v>
  <v type="int" >       41 </v>
  <v type="int" >       58 </v>
  <v type="int" >       18 </v>
  <v type="int" >       98 </v>
  <v type="int" >       23 </v>
  <v type="int" >       88 </v>
  <v type="int" >       57 </v>
  <v type="int" >       54 </v>
  <v type="int" >       14 </v>
  <v type="int" >       96 </v>
  <v type="int" >       89 </v>
  <v type="int" >       38 </v>
  <v type="int" >       95 </v>
  <v type="int" >       53 </v>
  <v type="int" >       24 </v>
  <v type="int" >       25 </v>
  <v type="int" >       29 </v>
  <v type="int" >       17 </v>
  <v type="int" >       90 </v>
  <v type="int" >       67 </v>
  <v type="int" >       87 </v>
  <v type="int" >       63 </v>
  <v type="int" >       71 </v>
  <v type="int" >       34 </v>
  <v type="int" >       37 </v>
  <v type="int" >       66 </v>
  <v type="int" >       68 </v>
  <v type="int" >       36 </v>
  <v type="int" >       64 </v>
  <v type="int" >       77 </v>
  <v type="int" >       75 </v>
  <v type="int" >       70 </v>
  <v type="int" >       26 </v>
  <v type="int" >       81 </v>
  <v type="int" >       30 </v>
  <v type="int" >        5 </v>
  <v type="int" >       74 </v>
  <v type="int" >        6 </v>
  <v type="int" >       78 </v>
  <v type="int" >       65 </v>
  <v type="int" >       69 </v>
  <v type="int" >       27 </v>
  <v type="int" >       76 </v>
  <v type="int" >       33 </v>
  <v type="int" >       80 </v>
  <v type="int" >       35 </v>
  <v type="int" >        7 </v>
  <v type="int" >       15 </v>
  <v type="int" >        8 </v>
  <v type="int" >       82 </v>
  <v type="int" >       73 </v>
  <v type="int" >       72 </v>
  <v type="int" >       79 </v>
  <v type="int" >       28 </v>
  <v type="int" >       39 </v>
  <v type="int" >       56 </v>
  <v type="int" >       83 </v>
  <v type="int" >       86 </v>
  <v type="int" >       91 </v>
  <v type="int" >       51 </v>
  <v type="int" >       20 </v>
  <v type="int" >       16 </v>
  <v type="int" >       55 </v>
  <v type="int" >       85 </v>
  <v type="int" >       31 </v>
  <v type="int" >       40 </v>
  <v type="int" >       52 </v>
  <v type="int" >       92 </v>
  <v type="int" >       84 </v>
  <v type="int" >       46 </v>
  <v type="int" >       94 </v>
  <v type="int" >       19 </v>
  <v type="int" >       93 </v>
  <v type="int" >       32 </v>
  <v type="int" >       50 </v>
  <v type="int" >      102 </v>
  <v type="int" >       44 </v>
  <v type="int" >       12 </v>
  <v type="int" >      100 </v>
  <v type="int" >        4 </v>
  <v type="int" >       42 </v>
  <v type="int" >      108 </v>
  <v type="int" >      106 </v>
  <v type="int" >       62 </v>
  <v type="int" >      107 </v>
  <v type="int" >       11 </v>
  <v type="int" >        3 </v>
  <v type="int" >       49 </v>
  <v type="int" >       22 </v>
  <v type="int" >       61 </v>
 </varray>
 <kpoints>
  <generation param="listgenerated">
   <i name="divisions" type="int">      20 </i>
   <v>       0.00000000       0.00000000       0.00000000 </v>
   <v>       0.50000000      -0.50000000       0.00000000 </v>
   <v>       0.50287857      -0.49711971       0.00000000 </v>
   <v>       0.50000000       0.00000000       0.00000000 </v>
   <v>       0.49712143       0.49711971       0.00000000 </v>
   <v>       0.00000000       0.50000000       0.00000000 </v>
   <v>       0.00000000       0.00000000       0.00000000 </v>
  </generation>
  <varray name="kpointlist" >
   <v>       0.00000000       0.00000000       0.00000000 </v>
   <v>       0.02631579      -0.02631579       0.00000000 </v>
   <v>       0.05263158      -0.05263158       0.00000000 </v>
   <v>       0.07894737      -0.07894737       0.00000000 </v>
   <v>       0.10526316      -0.10526316       0.00000000 </v>
   <v>       0.13157895      -0.13157895       0.00000000 </v>
   <v>       0.15789474      -0.15789474       0.00000000 </v>
   <v>       0.18421053      -0.18421053       0.00000000 </v>
   <v>       0.21052632      -0.21052632       0.00000000 </v>
   <v>       0.23684211      -0.23684211       0.00000000 </v>
   <v>       0.26315789      -0.26315789       0.00000000 </v>
   <v>       0.28947368      -0.28947368       0.00000000 </v>
   <v>       0.31578947      -0.31578947       0.00000000 </v>
   <v>       0.34210526      -0.34210526       0.00000000 </v>
   <v>       0.36842105      -0.36842105       0.00000000 </v>
   <v>       0.39473684      -0.39473684       0.00000000 </v>
   <v>       0.42105263      -0.42105263       0.00000000 </v>
   <v>       0.44736842      -0.44736842       0.00000000 </v>
   <v>       0.47368421      -0.47368421       0.00000000 </v>
   <v>       0.50000000      -0.50000000       0.00000000 </v>
   <v>       0.50000000      -0.50000000       0.00000000 </v>
   <v>       0.50015150      -0.49984841       0.00000000 </v>
   <v>       0.50030301      -0.49969681       0.00000000 </v>
   <v>       0.50045451      -0.49954522       0.00000000 </v>
   <v>       0.50060602      -0.49939362       0.00000000 </v>
   <v>       0.50075752      -0.49924203       0.00000000 </v>
   <v>       0.50090902      -0.49909043       0.00000000 </v>
   <v>       0.50106053      -0.49893884       0.00000000 </v>
   <v>       0.50121203      -0.49878724       0.00000000 </v>
   <v>       0.50136353      -0.49863565       0.00000000 </v>
   <v>       0.50151504      -0.49848406       0.00000000 </v>
   <v>       0.50166654      -0.49833246       0.00000000 </v>
   <v>       0.50181805      -0.49818087       0.00000000 </v>
   <v>       0.50196955      -0.49802927       0.00000000 </v>
   <v>       0.50212105      -0.49787768       0.00000000 </v>
   <v>       0.50227256      -0.49772608       0.00000000 </v>
   <v>       0.50242406      -0.49757449       0.00000000 </v>
   <v>       0.50257556      -0.49742289       0.00000000 </v>
   <v>       0.50272707      -0.49727130       0.00000000 </v>
   <v>       0.50287857      -0.49711971       0.00000000 </v>
   <v>       0.50287857      -0.49711971       0.00000000 </v>
   <v>       0.50272707      -0.47095551       0.00000000 </v>
   <v>       0.50257556      -0.44479132       0.00000000 </v>
   <v>       0.50242406      -0.41862712       0.00000000 </v>
   <v>       0.50227256      -0.39246293       0.00000000 </v>
   <v>       0.50212105      -0.36629873       0.00000000 </v>
   <v>       0.50196955      -0.34013454       0.00000000 </v>
   <v>       0.50181805      -0.31397034       0.00000000 </v>
   <v>       0.50166654      -0.28780615       0.00000000 </v>
   <v>       0.50151504      -0.26164195       0.00000000 </v>
   <v>       0.50136353      -0.23547776       0.00000000 </v>
   <v>       0.50121203      -0.20931356       0.00000000 </v>
   <v>       0.50106053      -0.18314937       0.00000000 </v>
   <v>       0.50090902      -0.15698517       0.00000000 </v>
   <v>       0.50075752      -0.13082098       0.00000000 </v>
   <v>       0.50060602      -0.10465678       0.00000000 </v>
   <v>       0.50045451      -0.07849259       0.00000000 </v>
   <v>       0.50030301      -0.05232839       0.00000000 </v>
   <v>       0.50015150      -0.02616420       0.00000000 </v>
   <v>       0.50000000      -0.00000000       0.00000000 </v>
   <v>       0.50000000       0.00000000       0.00000000 </v>
   <v>       0.49984850       0.02616420       0.00000000 </v>
   <v>       0.49969699       0.05232839       0.00000000 </v>
   <v>       0.49954549       0.07849259       0.00000000 </v>
   <v>       0.49939398       0.10465678       0.00000000 </v>
   <v>       0.49924248       0.13082098       0.00000000 </v>
   <v>       0.49909098       0.15698517       0.00000000 </v>
   <v>       0.49893947       0.18314937       0.00000000 </v>
   <v>       0.49878797       0.20931356       0.00000000 </v>
   <v>       0.49863647       0.23547776       0.00000000 </v>
   <v>       0.49848496       0.26164195       0.00000000 </v>
   <v>       0.49833346       0.28780615       0.00000000 </v>
   <v>       0.49818195       0.31397034       0.00000000 </v>
   <v>       0.49803045       0.34013454       0.00000000 </v>
   <v>       0.49787895       0.36629873       0.00000000 </v>
   <v>       0.49772744       0.39246293       0.00000000 </v>
   <v>       0.49757594       0.41862712       0.00000000 </v>
   <v>       0.49742444       0.44479132       0.00000000 </v>
   <v>       0.49727293       0.47095551       0.00000000 </v>
   <v>       0.49712143       0.49711971       0.00000000 </v>
   <v>       0.49712143       0.49711971       0.00000000 </v>
   <v>       0.47095714       0.49727130       0.00000000 </v>
   <v>       0.44479286       0.49742289       0.00000000 </v>
   <v>       0.41862857       0.49757449       0.00000000 </v>
   <v>       0.39246429       0.49772608       0.00000000 </v>
   <v>       0.36630000       0.49787768       0.00000000 </v>
   <v>       0.34013571       0.49802927       0.00000000 </v>
   <v>       0.31397143       0.49818087       0.00000000 </v>
   <v>       0.28780714       0.49833246       0.00000000 </v>
   <v>       0.26164286       0.49848406       0.00000000 </v>
   <v>       0.23547857       0.49863565       0.00000000 </v>
   <v>       0.20931429       0.49878724       0.00000000 </v>
   <v>       0.18315000       0.49893884       0.00000000 </v>
   <v>       0.15698571       0.49909043       0.00000000 </v>
   <v>       0.13082143       0.49924203       0.00000000 </v>
   <v>       0.10465714       0.49939362       0.00000000 </v>
   <v>       0.07849286       0.49954522       0.00000000 </v>
   <v>       0.05232857       0.49969681       0.00000000 </v>
   <v>       0.02616429       0.49984841       0.00000000 </v>
   <v>       0.00000000       0.50000000       0.00000000 </v>
   <v>       0.00000000       0.50000000       0.00000000 </v>
   <v>       0.00000000       0.47368421       0.00000000 </v>
   <v>       0.00000000       0.44736842       0.00000000 </v>
   <v>       0.00000000       0.42105263       0.00000000 </v>
   <v>       0.00000000       0.39473684       0.00000000 </v>
   <v>       0.00000000       0.36842105       0.00000000 </v>
   <v>       0.00000000       0.34210526       0.00000000 </v>
   <v>       0.00000000       0.31578947       0.00000000 </v>
   <v>       0.00000000       0.28947368       0.00000000 </v>
   <v>       0.00000000       0.26315789       0.00000000 </v>
   <v>       0.00000000       0.23684211       0.00000000 </v>
   <v>       0.00000000       0.21052632       0.00000000 </v>
   <v>       0.00000000       0.18421053       0.00000000 </v>
   <v>       0.00000000       0.15789474       0.00000000 </v>
   <v>       0.00000000       0.13157895       0.00000000 </v>
   <v>       0.00000000       0.10526316       0.00000000 </v>
   <v>       0.00000000       0.07894737       0.00000000 </v>
   <v>       0.00000000       0.05263158       0.00000000 </v>
   <v>       0.00000000       0.02631579       0.00000000 </v>
   <v>       0.00000000       0.00000000       0.00000000 </v>
  </varray>
  <varray name="weights" >
   <v>       0.00833333 </v>
   <v>       0.00833333 </v>
   <v>       0.00833333 </v>
   <v>       0.00833333 </v>
   <v>       0.00833333 </v>
   <v>       0.00833333 </v>
   <v>       0.00833333 </v>
   <v>       0.00833333 </v>
   <v>       0.00833333 </v>
   <v>       0.00833333 </v>
   <v>       0.00833333 </v>
   <v>       0.00833333 </v>
   <v>       0.00833333 </v>
   <v>       0.00833333 </v>
   <v>       0.00833333 </v>
   <v>       0.00833333 </v>
   <v>       0.00833333 </v>
   <v>       0.00833333 </v>
   <v>       0.00833333 </v>
   <v>       0.00833333 </v>
   <v>       0.00833333 </v>
   <v>       0.00833333 </v>
   <v>       0.00833333 </v>
   <v>       0.00833333 </v>
   <v>       0.00833333 </v>
   <v>       0.00833333 </v>
   <v>       0.00833333 </v>
   <v>       0.00833333 </v>
   <v>       0.00833333 </v>
   <v>       0.00833333 </v>
   <v>       0.00833333 </v>
   <v>       0.00833333 </v>
   <v>       0.00833333 </v>
   <v>       0.00833333 </v>
   <v>       0.00833333 </v>
   <v>       0.00833333 </v>
   <v>       0.00833333 </v>
   <v>       0.00833333 </v>
   <v>       0.00833333 </v>
   <v>       0.00833333 </v>
   <v>       0.00833333 </v>
   <v>       0.00833333 </v>
   <v>       0.00833333 </v>
   <v>       0.00833333 </v>
   <v>       0.00833333 </v>
   <v>       0.00833333 </v>
   <v>       0.00833333 </v>
   <v>       0.00833333 </v>
   <v>       0.00833333 </v>
   <v>       0.00833333 </v>
   <v>       0.00833333 </v>
   <v>       0.00833333 </v>
   <v>       0.00833333 </v>
   <v>       0.00833333 </v>
   <v>       0.00833333 </v>
   <v>       0.00833333 </v>
   <v>       0.00833333 </v>
   <v>       0.00833333 </v>
   <v>       0.00833333 </v>
   <v>       0.00833333 </v>
   <v>       0.00833333 </v>
   <v>       0.00833333 </v>
   <v>       0.00833333 </v>
   <v>       0.00833333 </v>
   <v>       0.00833333 </v>
   <v>       0.00833333 </v>
   <v>       0.00833333 </v>
   <v>       0.00833333 </v>
   <v>       0.00833333 </v>
   <v>       0.00833333 </v>
   <v>       0.00833333 </v>
   <v>       0.00833333 </v>
   <v>       0.00833333 </v>
   <v>       0.00833333 </v>
   <v>       0.00833333 </v>
   <v>       0.00833333 </v>
   <v>       0.00833333 </v>
   <v>       0.00833333 </v>
   <v>       0.00833333 </v>
   <v>       0.00833333 </v>
   <v>       0.00833333 </v>
   <v>       0.00833333 </v>
   <v>       0.00833333 </v>
   <v>       0.00833333 </v>
   <v>       0.00833333 </v>
   <v>       0.00833333 </v>
   <v>       0.00833333 </v>
   <v>       0.00833333 </v>
   <v>       0.00833333 </v>
   <v>       0.00833333 </v>
   <v>       0.00833333 </v>
   <v>       0.00833333 </v>
   <v>       0.00833333 </v>
   <v>       0.00833333 </v>
   <v>       0.00833333 </v>
   <v>       0.00833333 </v>
   <v>       0.00833333 </v>
   <v>       0.00833333 </v>
   <v>       0.00833333 </v>
   <v>       0.00833333 </v>
   <v>       0.00833333 </v>
   <v>       0.00833333 </v>
   <v>       0.00833333 </v>
   <v>       0.00833333 </v>
   <v>       0.00833333 </v>
   <v>       0.00833333 </v>
   <v>       0.00833333 </v>
   <v>       0.00833333 </v>
   <v>       0.00833333 </v>
   <v>       0.00833333 </v>
   <v>       0.00833333 </v>
   <v>       0.00833333 </v>
   <v>       0.00833333 </v>
   <v>       0.00833333 </v>
   <v>       0.00833333 </v>
   <v>       0.00833333 </v>
   <v>       0.00833333 </v>
   <v>       0.00833333 </v>
   <v>       0.00833333 </v>
   <v>       0.00833333 </v>
  </varray>
 </kpoints>
 <parameters>
  <separator name="general" >
   <i type="string" name="SYSTEM">Simulation for cell shape cell volume r</i>
   <i type="logical" name="LCOMPAT"> F  </i>
  </separator>
  <separator name="electronic" >
   <i type="string" name="PREC">high</i>
   <i name="ENMAX">    500.00000000</i>
   <i name="ENAUG">    644.87300000</i>
   <i name="EDIFF">      0.00001000</i>
   <i type="int" name="IALGO">    38</i>
   <i type="int" name="IWAVPR">    10</i>
   <i type="int" name="NBANDS">   240</i>
   <i name="NELECT">    350.00000000</i>
   <i type="int" name="TURBO">     0</i>
   <i type="int" name="IRESTART">     0</i>
   <i type="int" name="NREBOOT">     0</i>
   <i type="int" name="NMIN">     0</i>
   <i name="EREF">      0.00000000</i>
   <separator name="electronic smearing" >
    <i type="int" name="ISMEAR">     0</i>
    <i name="SIGMA">      0.01000000</i>
    <i name="KSPACING">      0.50000000</i>
    <i type="logical" name="KGAMMA"> T  </i>
   </separator>
   <separator name="electronic projectors" >
    <i type="logical" name="LREAL"> T  </i>
    <v name="ROPT">     -0.00040000     -0.00040000     -0.00040000     -0.00040000</v>
    <i type="int" name="LMAXPAW">  -100</i>
    <i type="int" name="LMAXMIX">     2</i>
    <i type="logical" name="NLSPLINE"> F  </i>
   </separator>
   <separator name="electronic startup" >
    <i type="int" name="ISTART">     1</i>
    <i type="int" name="ICHARG">    11</i>
    <i type="int" name="INIWAV">     1</i>
   </separator>
   <separator name="electronic spin" >
    <i type="int" name="ISPIN">     1</i>
    <i type="logical" name="LNONCOLLINEAR"> F  </i>
    <v name="MAGMOM">      1.00000000      1.00000000      1.00000000      1.00000000      1.00000000      1.00000000      1.00000000      1.00000000      1.00000000      1.00000000      1.00000000      1.00000000      1.00000000      1.00000000      1.00000000      1.00000000      1.00000000      1.00000000      1.00000000      1.00000000
      1.00000000      1.00000000      1.00000000      1.00000000      1.00000000      1.00000000      1.00000000      1.00000000      1.00000000      1.00000000      1.00000000      1.00000000      1.00000000      1.00000000      1.00000000      1.00000000      1.00000000      1.00000000      1.00000000      1.00000000
      1.00000000      1.00000000      1.00000000      1.00000000      1.00000000      1.00000000      1.00000000      1.00000000      1.00000000      1.00000000      1.00000000      1.00000000      1.00000000      1.00000000      1.00000000      1.00000000      1.00000000      1.00000000      1.00000000      1.00000000
      1.00000000      1.00000000      1.00000000      1.00000000      1.00000000      1.00000000      1.00000000      1.00000000      1.00000000      1.00000000      1.00000000      1.00000000      1.00000000      1.00000000      1.00000000      1.00000000      1.00000000      1.00000000      1.00000000      1.00000000
      1.00000000      1.00000000      1.00000000      1.00000000      1.00000000      1.00000000      1.00000000      1.00000000      1.00000000      1.00000000      1.00000000      1.00000000      1.00000000      1.00000000      1.00000000      1.00000000      1.00000000      1.00000000      1.00000000      1.00000000
      1.00000000      1.00000000      1.00000000      1.00000000      1.00000000      1.00000000      1.00000000      1.00000000</v>
    <i name="NUPDOWN">     -1.00000000</i>
    <i type="logical" name="LSORBIT"> F  </i>
    <v name="SAXIS">      0.00000000      0.00000000      1.00000000</v>
    <i type="logical" name="LSPIRAL"> F  </i>
    <v name="QSPIRAL">      0.00000000      0.00000000      0.00000000</v>
    <i type="logical" name="LZEROZ"> F  </i>
   </separator>
   <separator name="electronic exchange-correlation" >
    <i type="logical" name="LASPH"> F  </i>
    <i type="logical" name="LMETAGGA"> F  </i>
   </separator>
   <separator name="electronic convergence" >
    <i type="int" name="NELM">   200</i>
    <i type="int" name="NELMDL">     0</i>
    <i type="int" name="NELMIN">     2</i>
    <i name="ENINI">    500.00000000</i>
    <separator name="electronic convergence detail" >
     <i type="logical" name="LDIAG"> T  </i>
     <i type="logical" name="LSUBROT"> F  </i>
     <i name="WEIMIN">      0.00000000</i>
     <i name="EBREAK">      0.00000001</i>
     <i name="DEPER">      0.30000000</i>
     <i type="int" name="NRMM">     4</i>
     <i name="TIME">      0.40000000</i>
    </separator>
   </separator>
   <separator name="electronic mixer" >
    <i name="AMIX">      0.40000000</i>
    <i name="BMIX">      1.00000000</i>
    <i name="AMIN">      0.10000000</i>
    <i name="AMIX_MAG">      1.60000000</i>
    <i name="BMIX_MAG">      1.00000000</i>
    <separator name="electronic mixer details" >
     <i type="int" name="IMIX">     4</i>
     <i type="logical" name="MIXFIRST"> F  </i>
     <i type="int" name="MAXMIX">   -45</i>
     <i name="WC">    100.00000000</i>
     <i type="int" name="INIMIX">     1</i>
     <i type="int" name="MIXPRE">     1</i>
     <i type="int" name="MREMOVE">     5</i>
    </separator>
   </separator>
   <separator name="electronic dipolcorrection" >
    <i type="logical" name="LDIPOL"> F  </i>
    <i type="logical" name="LMONO"> F  </i>
    <i type="int" name="IDIPOL">     0</i>
    <i name="EPSILON">      1.00000000</i>
    <v name="DIPOL">   -100.00000000   -100.00000000   -100.00000000</v>
    <i name="EFIELD">      0.00000000</i>
   </separator>
  </separator>
  <separator name="grids" >
   <i type="int" name="NGX">   192</i>
   <i type="int" name="NGY">   192</i>
   <i type="int" name="NGZ">   150</i>
   <i type="int" name="NGXF">   280</i>
   <i type="int" name="NGYF">   280</i>
   <i type="int" name="NGZF">   224</i>
   <i type="logical" name="ADDGRID"> F  </i>
  </separator>
  <separator name="ionic" >
   <i type="int" name="NSW">     0</i>
   <i type="int" name="IBRION">    -1</i>
   <i type="int" name="MDALGO">     0</i>
   <i type="int" name="ISIF">     2</i>
   <i name="PSTRESS">      0.00000000</i>
   <i name="EDIFFG">     -0.01000000</i>
   <i type="int" name="NFREE">     0</i>
   <i name="POTIM">      0.30000000</i>
   <i name="SMASS">     -3.00000000</i>
   <i name="SCALEE">      1.00000000</i>
  </separator>
  <separator name="ionic md" >
   <i name="TEBEG">      0.00010000</i>
   <i name="TEEND">      0.00010000</i>
   <i type="int" name="NBLOCK">     1</i>
   <i type="int" name="KBLOCK">     1</i>
   <i type="int" name="NPACO">   256</i>
   <i name="APACO">     16.00000000</i>
  </separator>
  <separator name="symmetry" >
   <i type="int" name="ISYM">     2</i>
   <i name="SYMPREC">      0.00001000</i>
  </separator>
  <separator name="dos" >
   <i type="int" name="LORBIT">     0</i>
   <v name="RWIGS">     -1.00000000     -1.00000000     -1.00000000     -1.00000000</v>
   <i type="int" name="NEDOS">   301</i>
   <i name="EMIN">     10.00000000</i>
   <i name="EMAX">    -10.00000000</i>
   <i name="EFERMI">      0.00000000</i>
  </separator>
  <separator name="writing" >
   <i type="int" name="NWRITE">     0</i>
   <i type="logical" name="LWAVE"> F  </i>
   <i type="logical" name="LDOWNSAMPLE"> F  </i>
   <i type="logical" name="LCHARG"> F  </i>
   <i type="logical" name="LPARD"> F  </i>
   <i type="logical" name="LVTOT"> F  </i>
   <i type="logical" name="LVHAR"> F  </i>
   <i type="logical" name="LELF"> F  </i>
   <i type="logical" name="LOPTICS"> F  </i>
   <v name="STM">      0.00000000      0.00000000      0.00000000      0.00000000      0.00000000      0.00000000      0.00000000</v>
  </separator>
  <separator name="performance" >
   <i type="int" name="NPAR">    16</i>
   <i type="int" name="NSIM">     4</i>
   <i type="int" name="NBLK">    -1</i>
   <i type="logical" name="LPLANE"> T  </i>
   <i type="logical" name="LSCALAPACK"> T  </i>
   <i type="logical" name="LSCAAWARE"> F  </i>
   <i type="logical" name="LSCALU"> F  </i>
   <i type="logical" name="LASYNC"> F  </i>
   <i type="logical" name="LORBITALREAL"> F  </i>
  </separator>
  <separator name="miscellaneous" >
   <i type="int" name="IDIOT">     3</i>
   <i type="int" name="ISPECIAL">     0</i>
   <i type="logical" name="LMUSIC"> F  </i>
   <v name="POMASS">     14.00100000      1.00000000     16.00000000     12.01100000</v>
   <v name="DARWINR">      0.00000000      0.00000000      0.00000000      0.00000000</v>
   <v name="DARWINV">      1.00000000      1.00000000      1.00000000      1.00000000</v>
   <i type="logical" name="LCORR"> T  </i>
  </separator>
  <i type="logical" name="GGA_COMPAT"> T  </i>
  <i type="logical" name="LBERRY"> F  </i>
  <i type="int" name="ICORELEVEL">     0</i>
  <i type="logical" name="LDAU"> F  </i>
  <i type="int" name="I_CONSTRAINED_M">     0</i>
  <separator name="electronic exchange-correlation" >
   <i type="string" name="GGA">PE</i>
   <i type="int" name="VOSKOWN">     0</i>
   <i type="logical" name="LHFCALC"> F  </i>
   <i type="string" name="PRECFOCK"></i>
   <i type="logical" name="LSYMGRAD"> F  </i>
   <i type="logical" name="LHFONE"> F  </i>
   <i type="logical" name="LRHFCALC"> F  </i>
   <i type="logical" name="LTHOMAS"> F  </i>
   <i type="logical" name="LMODELHF"> F  </i>
   <i name="ENCUT4O">     -1.00000000</i>
   <i type="int" name="EXXOEP">     0</i>
   <i type="int" name="FOURORBIT">     0</i>
   <i name="AEXX">      0.00000000</i>
   <i name="HFALPHA">      0.00000000</i>
   <i name="MCALPHA">      0.00000000</i>
   <i name="ALDAX">      1.00000000</i>
   <i name="AGGAX">      1.00000000</i>
   <i name="ALDAC">      1.00000000</i>
   <i name="AGGAC">      1.00000000</i>
   <i type="int" name="NKREDX">     1</i>
   <i type="int" name="NKREDY">     1</i>
   <i type="int" name="NKREDZ">     1</i>
   <i type="logical" name="SHIFTRED"> F  </i>
   <i type="logical" name="ODDONLY"> F  </i>
   <i type="logical" name="EVENONLY"> F  </i>
   <i type="int" name="LMAXFOCK">     0</i>
   <i type="int" name="NMAXFOCKAE">     0</i>
   <i type="logical" name="LFOCKAEDFT"> F  </i>
   <i name="HFSCREEN">      0.00000000</i>
   <i name="HFSCREENC">      0.00000000</i>
   <i type="int" name="NBANDSGWLOW">     0</i>
  </separator>
  <separator name="vdW DFT" >
   <i type="logical" name="LUSE_VDW"> F  </i>
   <i name="Zab_VDW">     -0.84910000</i>
   <i name="PARAM1">      0.12340000</i>
   <i name="PARAM2">      1.00000000</i>
   <i name="PARAM3">      0.00000000</i>
  </separator>
  <separator name="model GW" >
   <i type="int" name="MODEL_GW">     0</i>
   <i name="MODEL_EPS0">     71.57786512</i>
   <i name="MODEL_ALPHA">      1.00000000</i>
  </separator>
  <separator name="linear response parameters" >
   <i type="logical" name="LEPSILON"> F  </i>
   <i type="logical" name="LRPA"> F  </i>
   <i type="logical" name="LNABLA"> F  </i>
   <i type="logical" name="LVEL"> F  </i>
   <i type="int" name="KINTER">     0</i>
   <i name="CSHIFT">      0.10000000</i>
   <i name="OMEGAMAX">     -1.00000000</i>
   <i name="DEG_THRESHOLD">      0.00200000</i>
   <i name="RTIME">     -0.10000000</i>
   <i name="WPLASMAI">      0.00000000</i>
   <v name="DFIELD">      0.00000000      0.00000000      0.00000000</v>
   <v name="WPLASMA">      0.00000000      0.00000000      0.00000000      0.00000000      0.00000000      0.00000000      0.00000000      0.00000000      0.00000000</v>
  </separator>
  <separator name="orbital magnetization" >
   <i type="logical" name="NUCIND"> F  </i>
   <v name="MAGPOS">      0.00000000      0.00000000      0.00000000</v>
   <i type="logical" name="LNICSALL"> T  </i>
   <i type="logical" name="ORBITALMAG"> F  </i>
   <i type="logical" name="LMAGBLOCH"> F  </i>
   <i type="logical" name="LCHIMAG"> F  </i>
   <i type="logical" name="LGAUGE"> T  </i>
   <i type="int" name="MAGATOM">     0</i>
   <v name="MAGDIPOL">      0.00000000      0.00000000      0.00000000</v>
   <v name="AVECCONST">      0.00000000      0.00000000      0.00000000</v>
  </separator>
  <separator name="response functions" >
   <i type="logical" name="LADDER"> F  </i>
   <i type="logical" name="LRPAFORCE"> F  </i>
   <i type="logical" name="LFXC"> F  </i>
   <i type="logical" name="LHARTREE"> T  </i>
   <i type="int" name="IBSE">     0</i>
   <v type="int" name="KPOINT">    -1     0     0     0</v>
   <i type="logical" name="LTCTE"> F  </i>
   <i type="logical" name="LTETE"> F  </i>
   <i type="logical" name="LTRIPLET"> F  </i>
   <i type="logical" name="LFXCEPS"> F  </i>
   <i type="logical" name="LFXHEG"> F  </i>
   <i type="int" name="NATURALO">     2</i>
   <i type="logical" name="L2ORDER"> F  </i>
   <i type="logical" name="LMP2LT"> F  </i>
   <i type="logical" name="LUSEW"> F  </i>
   <i name="ENCUTGW">     -2.00000000</i>
   <i name="ENCUTGWSOFT">     -2.00000000</i>
   <i name="ENCUTLF">     -1.00000000</i>
   <i type="int" name="LMAXMP2">    -1</i>
   <i name="SCISSOR">      0.00000000</i>
   <i type="int" name="NOMEGA">     0</i>
   <i type="int" name="NOMEGAR">     0</i>
   <i type="int" name="NBANDSGW">    -1</i>
   <i type="int" name="NBANDSO">    -1</i>
   <i type="int" name="NBANDSV">    -1</i>
   <i type="int" name="NELM">   200</i>
   <i type="int" name="NELMHF">     1</i>
   <i type="int" name="DIM">     3</i>
   <i type="int" name="ANTIRES">     0</i>
   <i name="OMEGAMAX">    -30.00000000</i>
   <i name="OMEGAMIN">    -30.00000000</i>
   <i name="OMEGATL">   -200.00000000</i>
   <i type="int" name="OMEGAGRID">   140</i>
   <i name="CSHIFT">     -0.10000000</i>
   <i type="logical" name="SELFENERGY"> F  </i>
   <i type="logical" name="LSPECTRAL"> F  </i>
   <i type="logical" name="LSPECTRALGW"> F  </i>
   <i type="logical" name="LSINGLES"> F  </i>
   <i type="logical" name="LFERMIGW"> F  </i>
   <i type="logical" name="ODDONLYGW"> F  </i>
   <i type="logical" name="EVENONLYGW"> F  </i>
   <i type="int" name="NKREDLFX">     1</i>
   <i type="int" name="NKREDLFY">     1</i>
   <i type="int" name="NKREDLFZ">     1</i>
   <i type="int" name="MAXMEM">  2800</i>
   <i type="int" name="TELESCOPE">     0</i>
   <i type="int" name="TAUPAR">     1</i>
   <i type="int" name="OMEGAPAR">    -1</i>
   <i name="LAMBDA">      1.00000000</i>
  </separator>
  <separator name="External order field" >
   <i name="OFIELD_KAPPA">      0.00000000</i>
   <v name="OFIELD_K">      0.00000000      0.00000000      0.00000000</v>
   <i name="OFIELD_Q6_NEAR">      0.00000000</i>
   <i name="OFIELD_Q6_FAR">      0.00000000</i>
   <i name="OFIELD_A">      0.00000000</i>
  </separator>
  <separator name="solvation model" >
   <i type="logical" name="LSOL"> F  </i>
  </separator>
 </parameters>
 <atominfo>
  <atoms>     108 </atoms>
  <types>       4 </types>
  <array name="atoms" >
   <dimension dim="1">ion</dimension>
   <field type="string">element</field>
   <field type="int">atomtype</field>
   <set>
    <rc><c>N </c><c>   1</c></rc>
    <rc><c>N </c><c>   1</c></rc>
    <rc><c>N </c><c>   1</c></rc>
    <rc><c>N </c><c>   1</c></rc>
    <rc><c>N </c><c>   1</c></rc>
    <rc><c>N </c><c>   1</c></rc>
    <rc><c>N </c><c>   1</c></rc>
    <rc><c>N </c><c>   1</c></rc>
    <rc><c>N </c><c>   1</c></rc>
    <rc><c>N </c><c>   1</c></rc>
    <rc><c>N </c><c>   1</c></rc>
    <rc><c>N </c><c>   1</c></rc>
    <rc><c>H </c><c>   2</c></rc>
    <rc><c>H </c><c>   2</c></rc>
    <rc><c>H </c><c>   2</c></rc>
    <rc><c>H </c><c>   2</c></rc>
    <rc><c>H </c><c>   2</c></rc>
    <rc><c>H </c><c>   2</c></rc>
    <rc><c>H </c><c>   2</c></rc>
    <rc><c>H </c><c>   2</c></rc>
    <rc><c>H </c><c>   2</c></rc>
    <rc><c>H </c><c>   2</c></rc>
    <rc><c>H </c><c>   2</c></rc>
    <rc><c>H </c><c>   2</c></rc>
    <rc><c>H </c><c>   2</c></rc>
    <rc><c>H </c><c>   2</c></rc>
    <rc><c>H </c><c>   2</c></rc>
    <rc><c>H </c><c>   2</c></rc>
    <rc><c>H </c><c>   2</c></rc>
    <rc><c>H </c><c>   2</c></rc>
    <rc><c>H </c><c>   2</c></rc>
    <rc><c>H </c><c>   2</c></rc>
    <rc><c>H </c><c>   2</c></rc>
    <rc><c>H </c><c>   2</c></rc>
    <rc><c>H </c><c>   2</c></rc>
    <rc><c>H </c><c>   2</c></rc>
    <rc><c>H </c><c>   2</c></rc>
    <rc><c>H </c><c>   2</c></rc>
    <rc><c>H </c><c>   2</c></rc>
    <rc><c>H </c><c>   2</c></rc>
    <rc><c>H </c><c>   2</c></rc>
    <rc><c>H </c><c>   2</c></rc>
    <rc><c>H </c><c>   2</c></rc>
    <rc><c>H </c><c>   2</c></rc>
    <rc><c>H </c><c>   2</c></rc>
    <rc><c>H </c><c>   2</c></rc>
    <rc><c>O </c><c>   3</c></rc>
    <rc><c>O </c><c>   3</c></rc>
    <rc><c>O </c><c>   3</c></rc>
    <rc><c>O </c><c>   3</c></rc>
    <rc><c>C </c><c>   4</c></rc>
    <rc><c>C </c><c>   4</c></rc>
    <rc><c>C </c><c>   4</c></rc>
    <rc><c>C </c><c>   4</c></rc>
    <rc><c>C </c><c>   4</c></rc>
    <rc><c>C </c><c>   4</c></rc>
    <rc><c>C </c><c>   4</c></rc>
    <rc><c>C </c><c>   4</c></rc>
    <rc><c>C </c><c>   4</c></rc>
    <rc><c>C </c><c>   4</c></rc>
    <rc><c>C </c><c>   4</c></rc>
    <rc><c>C </c><c>   4</c></rc>
    <rc><c>C </c><c>   4</c></rc>
    <rc><c>C </c><c>   4</c></rc>
    <rc><c>C </c><c>   4</c></rc>
    <rc><c>C </c><c>   4</c></rc>
    <rc><c>C </c><c>   4</c></rc>
    <rc><c>C </c><c>   4</c></rc>
    <rc><c>C </c><c>   4</c></rc>
    <rc><c>C </c><c>   4</c></rc>
    <rc><c>C </c><c>   4</c></rc>
    <rc><c>C </c><c>   4</c></rc>
    <rc><c>C </c><c>   4</c></rc>
    <rc><c>C </c><c>   4</c></rc>
    <rc><c>C </c><c>   4</c></rc>
    <rc><c>C </c><c>   4</c></rc>
    <rc><c>C </c><c>   4</c></rc>
    <rc><c>C </c><c>   4</c></rc>
    <rc><c>C </c><c>   4</c></rc>
    <rc><c>C </c><c>   4</c></rc>
    <rc><c>C </c><c>   4</c></rc>
    <rc><c>C </c><c>   4</c></rc>
    <rc><c>C </c><c>   4</c></rc>
    <rc><c>C </c><c>   4</c></rc>
    <rc><c>C </c><c>   4</c></rc>
    <rc><c>C </c><c>   4</c></rc>
    <rc><c>C </c><c>   4</c></rc>
    <rc><c>C </c><c>   4</c></rc>
    <rc><c>C </c><c>   4</c></rc>
    <rc><c>C </c><c>   4</c></rc>
    <rc><c>C </c><c>   4</c></rc>
    <rc><c>C </c><c>   4</c></rc>
    <rc><c>C </c><c>   4</c></rc>
    <rc><c>C </c><c>   4</c></rc>
    <rc><c>C </c><c>   4</c></rc>
    <rc><c>C </c><c>   4</c></rc>
    <rc><c>C </c><c>   4</c></rc>
    <rc><c>C </c><c>   4</c></rc>
    <rc><c>C </c><c>   4</c></rc>
    <rc><c>C </c><c>   4</c></rc>
    <rc><c>C </c><c>   4</c></rc>
    <rc><c>C </c><c>   4</c></rc>
    <rc><c>C </c><c>   4</c></rc>
    <rc><c>C </c><c>   4</c></rc>
    <rc><c>C </c><c>   4</c></rc>
    <rc><c>C </c><c>   4</c></rc>
    <rc><c>C </c><c>   4</c></rc>
    <rc><c>C </c><c>   4</c></rc>
   </set>
  </array>
  <array name="atomtypes" >
   <dimension dim="1">type</dimension>
   <field type="int">atomspertype</field>
   <field type="string">element</field>
   <field>mass</field>
   <field>valence</field>
   <field type="string">pseudopotential</field>
   <set>
    <rc><c>  12</c><c>N </c><c>     14.00100000</c><c>      5.00000000</c><c>  PAW_PBE N 08Apr2002                   </c></rc>
    <rc><c>  34</c><c>H </c><c>      1.00000000</c><c>      1.00000000</c><c>  PAW_PBE H 15Jun2001                   </c></rc>
    <rc><c>   4</c><c>O </c><c>     16.00000000</c><c>      6.00000000</c><c>  PAW_PBE O 08Apr2002                   </c></rc>
    <rc><c>  58</c><c>C </c><c>     12.01100000</c><c>      4.00000000</c><c>  PAW_PBE C 08Apr2002                   </c></rc>
   </set>
  </array>
 </atominfo>
 <structure name="initialpos" >
  <crystal>
   <varray name="basis" >
    <v>      25.37746474      -0.06525064       0.00000000 </v>
    <v>      -0.08176670      25.38496765       0.00000000 </v>
    <v>       0.00000000       0.00000000      20.00000000 </v>
   </varray>
   <i name="volume">  12884.01572154 </i>
   <varray name="rec_basis" >
    <v>       0.03940537       0.00012693       0.00000000 </v>
    <v>       0.00010129       0.03939372       0.00000000 </v>
    <v>       0.00000000       0.00000000       0.05000000 </v>
   </varray>
  </crystal>
  <varray name="positions" >
   <v>       0.98635595       0.45925922       0.41272875 </v>
   <v>       0.99030754       0.59647039       0.46552076 </v>
   <v>       0.51754032       0.98281151       0.41184204 </v>
   <v>       0.38106052       0.98798316       0.46722096 </v>
   <v>       0.04573268       0.05024939       0.51604862 </v>
   <v>       0.93034309       0.04315383       0.51339136 </v>
   <v>       0.93249385       0.92750782       0.51086220 </v>
   <v>       0.04782524       0.93467725       0.51312810 </v>
   <v>       0.00742015       0.51794787       0.52815099 </v>
   <v>       0.99961494       0.38060581       0.46932913 </v>
   <v>       0.46061341       0.00627838       0.52768548 </v>
   <v>       0.59714966       0.99697033       0.46631304 </v>
   <v>       0.01692771       0.28937619       0.41745822 </v>
   <v>       0.02085240       0.19123720       0.41980670 </v>
   <v>       0.78649487       0.01887630       0.41456999 </v>
   <v>       0.68823838       0.01411069       0.41315810 </v>
   <v>       0.96736449       0.78493822       0.41114818 </v>
   <v>       0.97148605       0.68661805       0.41255561 </v>
   <v>       0.29008311       0.97074818       0.41534284 </v>
   <v>       0.19165098       0.96756688       0.41534240 </v>
   <v>       0.97514150       0.53126402       0.36572937 </v>
   <v>       0.44477586       0.97105558       0.36659713 </v>
   <v>       0.93551407       0.28799316       0.60651805 </v>
   <v>       0.94102271       0.19027755       0.60982302 </v>
   <v>       0.08792046       0.17326979       0.52194215 </v>
   <v>       0.16533430       0.10159007       0.52075992 </v>
   <v>       0.01832058       0.02070493       0.51420030 </v>
   <v>       0.95985644       0.95711814       0.51233499 </v>
   <v>       0.87675695       0.16433652       0.51160512 </v>
   <v>       0.80507959       0.08659949       0.51228144 </v>
   <v>       0.78805676       0.94209298       0.60656349 </v>
   <v>       0.69030027       0.93578617       0.60428285 </v>
   <v>       0.81313105       0.87563964       0.50636624 </v>
   <v>       0.89077373       0.80426012       0.50779935 </v>
   <v>       0.17315331       0.89132674       0.51489674 </v>
   <v>       0.10123160       0.81339528       0.51115199 </v>
   <v>       0.02781128       0.78962601       0.61224795 </v>
   <v>       0.03215336       0.69173096       0.61355480 </v>
   <v>       0.19008198       0.02534575       0.61774534 </v>
   <v>       0.28808712       0.02879393       0.61762875 </v>
   <v>       0.02166207       0.60791719       0.56108845 </v>
   <v>       0.60749907       0.94556490       0.54677305 </v>
   <v>       0.94622280       0.37049336       0.54788102 </v>
   <v>       0.37127221       0.01833280       0.56354137 </v>
   <v>       0.06919759       0.39178560       0.54500488 </v>
   <v>       0.58763136       0.06845622       0.53925596 </v>
   <v>       0.01319649       0.45858779       0.64892500 </v>
   <v>       0.06282672       0.40150128       0.59169723 </v>
   <v>       0.52138024       0.01540793       0.64687213 </v>
   <v>       0.57844767       0.06331790       0.58638795 </v>
   <v>       0.21305983       0.98076090       0.45964478 </v>
   <v>       0.26773191       0.98246683       0.45940231 </v>
   <v>       0.98119395       0.76424540       0.45557759 </v>
   <v>       0.98347726       0.70962150       0.45607171 </v>
   <v>       0.71052315       0.99875920       0.45543829 </v>
   <v>       0.76515011       0.00138863       0.45647067 </v>
   <v>       0.00291258       0.21267797       0.46114293 </v>
   <v>       0.00074325       0.26726886       0.45953710 </v>
   <v>       0.98449554       0.51151050       0.41279210 </v>
   <v>       0.99438846       0.54185972       0.47074336 </v>
   <v>       0.46526492       0.98109175       0.41299886 </v>
   <v>       0.43579309       0.99202144       0.47127537 </v>
   <v>       0.08363591       0.13078762       0.51978476 </v>
   <v>       0.12323059       0.09415345       0.51960653 </v>
   <v>       0.09941360       0.04279586       0.51762322 </v>
   <v>       0.03418810       0.10314020       0.51676172 </v>
   <v>       0.98353487       0.12542885       0.51562304 </v>
   <v>       0.93549013       0.09696346       0.51421507 </v>
   <v>       0.87709533       0.03362604       0.51199625 </v>
   <v>       0.84764456       0.08280497       0.51229266 </v>
   <v>       0.88402954       0.12226931       0.51255442 </v>
   <v>       0.85258690       0.98348061       0.51125567 </v>
   <v>       0.87882443       0.93480144       0.51056886 </v>
   <v>       0.94418839       0.87463511       0.50980230 </v>
   <v>       0.89485632       0.84679816       0.50853064 </v>
   <v>       0.85517118       0.88332158       0.50823083 </v>
   <v>       0.99478369       0.85244819       0.51107645 </v>
   <v>       0.04273874       0.88089903       0.51248254 </v>
   <v>       0.10107132       0.94412773       0.51394142 </v>
   <v>       0.13056919       0.89495818       0.51383659 </v>
   <v>       0.09417459       0.85551167       0.51235478 </v>
   <v>       0.12558932       0.99416920       0.51615702 </v>
   <v>       0.18431620       0.99627300       0.51655318 </v>
   <v>       0.29550927       0.99989789       0.51635136 </v>
   <v>       0.26686447       0.01546086       0.57317261 </v>
   <v>       0.21199374       0.01365161       0.57328128 </v>
   <v>       0.99724169       0.79380330       0.51169571 </v>
   <v>       0.00196436       0.68276352       0.51302863 </v>
   <v>       0.01795943       0.71224043       0.56911647 </v>
   <v>       0.01558099       0.76702026       0.56848493 </v>
   <v>       0.79393053       0.98096848       0.51079258 </v>
   <v>       0.76619771       0.95750210       0.56395736 </v>
   <v>       0.71143057       0.95405968       0.56266726 </v>
   <v>       0.68294023       0.97494594       0.50865954 </v>
   <v>       0.98127782       0.18405134       0.51506889 </v>
   <v>       0.95730489       0.21197213       0.56746809 </v>
   <v>       0.97623856       0.29501151       0.51185822 </v>
   <v>       0.95430179       0.26670882       0.56557122 </v>
   <v>       0.00537870       0.62554169       0.51514279 </v>
   <v>       0.62558695       0.97148231       0.50857481 </v>
   <v>       0.97302088       0.35232646       0.51096871 </v>
   <v>       0.35282784       0.00271781       0.51762985 </v>
   <v>       0.99798486       0.43522199       0.47095728 </v>
   <v>       0.01024841       0.46551822       0.52905139 </v>
   <v>       0.02775770       0.44213639       0.59514533 </v>
   <v>       0.54251984       0.99548506       0.46913909 </v>
   <v>       0.51309457       0.00909637       0.52737970 </v>
   <v>       0.53743278       0.02840803       0.59218808 </v>
  </varray>
 </structure>
 <calculation>
  <scstep>
   <time name="dav">  927.37  938.50</time>
   <time name="total">  927.57  938.71</time>
   <energy>
    <i name="alphaZ">     44.14883673 </i>
    <i name="ewald">  44071.93932375 </i>
    <i name="hartreedc"> -55421.54172910 </i>
    <i name="XCdc">   1245.09958367 </i>
    <i name="pawpsdc">  32581.88472533 </i>
    <i name="pawaedc"> -32647.10650778 </i>
    <i name="eentropy">     -0.00000000 </i>
    <i name="bandstr">  -4505.80400073 </i>
    <i name="atom">  13862.99100476 </i>
    <i name="e_fr_energy">   -768.38876337 </i>
    <i name="e_wo_entrp">   -768.38876337 </i>
    <i name="e_0_energy">   -768.38876337 </i>
   </energy>
  </scstep>
  <scstep>
   <time name="dav"> 1065.42 1078.49</time>
   <time name="total"> 1065.43 1078.50</time>
   <energy>
    <i name="e_fr_energy">   -769.24538001 </i>
    <i name="e_wo_entrp">   -769.24538001 </i>
    <i name="e_0_energy">   -769.24538001 </i>
   </energy>
  </scstep>
  <scstep>
   <time name="dav"> 1212.54 1227.29</time>
   <time name="total"> 1212.54 1227.30</time>
   <energy>
    <i name="e_fr_energy">   -769.27068253 </i>
    <i name="e_wo_entrp">   -769.27068253 </i>
    <i name="e_0_energy">   -769.27068253 </i>
   </energy>
  </scstep>
  <scstep>
   <time name="dav"> 1058.22 1071.15</time>
   <time name="total"> 1058.22 1071.16</time>
   <energy>
    <i name="e_fr_energy">   -769.27107919 </i>
    <i name="e_wo_entrp">   -769.27107919 </i>
    <i name="e_0_energy">   -769.27107919 </i>
   </energy>
  </scstep>
  <scstep>
   <time name="dav"> 1070.87 1085.25</time>
   <time name="total"> 1070.87 1085.26</time>
   <energy>
    <i name="e_fr_energy">   -769.27110009 </i>
    <i name="e_wo_entrp">   -769.27110009 </i>
    <i name="e_0_energy">   -769.27110009 </i>
   </energy>
  </scstep>
  <scstep>
   <time name="dav">  845.78  857.72</time>
   <time name="total">  845.78  857.72</time>
   <energy>
    <i name="alphaZ">     44.14883673 </i>
    <i name="ewald">  44071.93932375 </i>
    <i name="hartreedc"> -55421.54172910 </i>
    <i name="XCdc">   1245.09958367 </i>
    <i name="pawpsdc">  32581.88472533 </i>
    <i name="pawaedc"> -32647.10650778 </i>
    <i name="eentropy">     -0.00000000 </i>
    <i name="bandstr">  -4506.68633825 </i>
    <i name="atom">  13862.99100476 </i>
    <i name="e_fr_energy">   -769.27110089 </i>
    <i name="e_wo_entrp">   -769.27110089 </i>
    <i name="e_0_energy">   -769.27110089 </i>
   </energy>
  </scstep>
  <structure>
   <crystal>
    <varray name="basis" >
     <v>      25.37746474      -0.06525064       0.00000000 </v>
     <v>      -0.08176670      25.38496765       0.00000000 </v>
     <v>       0.00000000       0.00000000      20.00000000 </v>
    </varray>
    <i name="volume">  12884.01572154 </i>
    <varray name="rec_basis" >
     <v>       0.03940537       0.00012693       0.00000000 </v>
     <v>       0.00010129       0.03939372       0.00000000 </v>
     <v>       0.00000000       0.00000000       0.05000000 </v>
    </varray>
   </crystal>
   <varray name="positions" >
    <v>       0.98635595       0.45925922       0.41272875 </v>
    <v>       0.99030754       0.59647039       0.46552076 </v>
    <v>       0.51754032       0.98281151       0.41184204 </v>
    <v>       0.38106052       0.98798316       0.46722096 </v>
    <v>       0.04573268       0.05024939       0.51604862 </v>
    <v>       0.93034309       0.04315383       0.51339136 </v>
    <v>       0.93249385       0.92750782       0.51086220 </v>
    <v>       0.04782524       0.93467725       0.51312810 </v>
    <v>       0.00742015       0.51794787       0.52815099 </v>
    <v>       0.99961494       0.38060581       0.46932913 </v>
    <v>       0.46061341       0.00627838       0.52768548 </v>
    <v>       0.59714966       0.99697033       0.46631304 </v>
    <v>       0.01692771       0.28937619       0.41745822 </v>
    <v>       0.02085240       0.19123720       0.41980670 </v>
    <v>       0.78649487       0.01887630       0.41456999 </v>
    <v>       0.68823838       0.01411069       0.41315810 </v>
    <v>       0.96736449       0.78493822       0.41114818 </v>
    <v>       0.97148605       0.68661805       0.41255561 </v>
    <v>       0.29008311       0.97074818       0.41534284 </v>
    <v>       0.19165098       0.96756688       0.41534240 </v>
    <v>       0.97514150       0.53126402       0.36572937 </v>
    <v>       0.44477586       0.97105558       0.36659713 </v>
    <v>       0.93551407       0.28799316       0.60651805 </v>
    <v>       0.94102271       0.19027755       0.60982302 </v>
    <v>       0.08792046       0.17326979       0.52194215 </v>
    <v>       0.16533430       0.10159007       0.52075992 </v>
    <v>       0.01832058       0.02070493       0.51420030 </v>
    <v>       0.95985644       0.95711814       0.51233499 </v>
    <v>       0.87675695       0.16433652       0.51160512 </v>
    <v>       0.80507959       0.08659949       0.51228144 </v>
    <v>       0.78805676       0.94209298       0.60656349 </v>
    <v>       0.69030027       0.93578617       0.60428285 </v>
    <v>       0.81313105       0.87563964       0.50636624 </v>
    <v>       0.89077373       0.80426012       0.50779935 </v>
    <v>       0.17315331       0.89132674       0.51489674 </v>
    <v>       0.10123160       0.81339528       0.51115199 </v>
    <v>       0.02781128       0.78962601       0.61224795 </v>
    <v>       0.03215336       0.69173096       0.61355480 </v>
    <v>       0.19008198       0.02534575       0.61774534 </v>
    <v>       0.28808712       0.02879393       0.61762875 </v>
    <v>       0.02166207       0.60791719       0.56108845 </v>
    <v>       0.60749907       0.94556490       0.54677305 </v>
    <v>       0.94622280       0.37049336       0.54788102 </v>
    <v>       0.37127221       0.01833280       0.56354137 </v>
    <v>       0.06919759       0.39178560       0.54500488 </v>
    <v>       0.58763136       0.06845622       0.53925596 </v>
    <v>       0.01319649       0.45858779       0.64892500 </v>
    <v>       0.06282672       0.40150128       0.59169723 </v>
    <v>       0.52138024       0.01540793       0.64687213 </v>
    <v>       0.57844767       0.06331790       0.58638795 </v>
    <v>       0.21305983       0.98076090       0.45964478 </v>
    <v>       0.26773191       0.98246683       0.45940231 </v>
    <v>       0.98119395       0.76424540       0.45557759 </v>
    <v>       0.98347726       0.70962150       0.45607171 </v>
    <v>       0.71052315       0.99875920       0.45543829 </v>
    <v>       0.76515011       0.00138863       0.45647067 </v>
    <v>       0.00291258       0.21267797       0.46114293 </v>
    <v>       0.00074325       0.26726886       0.45953710 </v>
    <v>       0.98449554       0.51151050       0.41279210 </v>
    <v>       0.99438846       0.54185972       0.47074336 </v>
    <v>       0.46526492       0.98109175       0.41299886 </v>
    <v>       0.43579309       0.99202144       0.47127537 </v>
    <v>       0.08363591       0.13078762       0.51978476 </v>
    <v>       0.12323059       0.09415345       0.51960653 </v>
    <v>       0.09941360       0.04279586       0.51762322 </v>
    <v>       0.03418810       0.10314020       0.51676172 </v>
    <v>       0.98353487       0.12542885       0.51562304 </v>
    <v>       0.93549013       0.09696346       0.51421507 </v>
    <v>       0.87709533       0.03362604       0.51199625 </v>
    <v>       0.84764456       0.08280497       0.51229266 </v>
    <v>       0.88402954       0.12226931       0.51255442 </v>
    <v>       0.85258690       0.98348061       0.51125567 </v>
    <v>       0.87882443       0.93480144       0.51056886 </v>
    <v>       0.94418839       0.87463511       0.50980230 </v>
    <v>       0.89485632       0.84679816       0.50853064 </v>
    <v>       0.85517118       0.88332158       0.50823083 </v>
    <v>       0.99478369       0.85244819       0.51107645 </v>
    <v>       0.04273874       0.88089903       0.51248254 </v>
    <v>       0.10107132       0.94412773       0.51394142 </v>
    <v>       0.13056919       0.89495818       0.51383659 </v>
    <v>       0.09417459       0.85551167       0.51235478 </v>
    <v>       0.12558932       0.99416920       0.51615702 </v>
    <v>       0.18431620       0.99627300       0.51655318 </v>
    <v>       0.29550927       0.99989789       0.51635136 </v>
    <v>       0.26686447       0.01546086       0.57317261 </v>
    <v>       0.21199374       0.01365161       0.57328128 </v>
    <v>       0.99724169       0.79380330       0.51169571 </v>
    <v>       0.00196436       0.68276352       0.51302863 </v>
    <v>       0.01795943       0.71224043       0.56911647 </v>
    <v>       0.01558099       0.76702026       0.56848493 </v>
    <v>       0.79393053       0.98096848       0.51079258 </v>
    <v>       0.76619771       0.95750210       0.56395736 </v>
    <v>       0.71143057       0.95405968       0.56266726 </v>
    <v>       0.68294023       0.97494594       0.50865954 </v>
    <v>       0.98127782       0.18405134       0.51506889 </v>
    <v>       0.95730489       0.21197213       0.56746809 </v>
    <v>       0.97623856       0.29501151       0.51185822 </v>
    <v>       0.95430179       0.26670882       0.56557122 </v>
    <v>       0.00537870       0.62554169       0.51514279 </v>
    <v>       0.62558695       0.97148231       0.50857481 </v>
    <v>       0.97302088       0.35232646       0.51096871 </v>
    <v>       0.35282784       0.00271781       0.51762985 </v>
    <v>       0.99798486       0.43522199       0.47095728 </v>
    <v>       0.01024841       0.46551822       0.52905139 </v>
    <v>       0.02775770       0.44213639       0.59514533 </v>
    <v>       0.54251984       0.99548506       0.46913909 </v>
    <v>       0.51309457       0.00909637       0.52737970 </v>
    <v>       0.53743278       0.02840803       0.59218808 </v>
   </varray>
  </structure>
  <varray name="forces" >
   <v>       0.00534166       0.00643285      -0.00504306 </v>
   <v>       0.00359320      -0.02259641      -0.00692370 </v>
   <v>      -0.01568237       0.00286492      -0.00488203 </v>
   <v>       0.01782944      -0.00012233      -0.01156779 </v>
   <v>       0.00755772       0.01190995       0.00121748 </v>
   <v>      -0.00001048       0.00162922      -0.00005311 </v>
   <v>      -0.00426206      -0.00453296      -0.00341615 </v>
   <v>       0.00022294       0.00235998       0.00114242 </v>
   <v>       0.00737513      -0.00881404       0.00865238 </v>
   <v>      -0.00661661       0.01261296      -0.02126512 </v>
   <v>       0.00645183       0.00594459       0.00687646 </v>
   <v>      -0.01341690      -0.00768730      -0.01528610 </v>
   <v>      -0.00094787       0.00083052      -0.00067503 </v>
   <v>      -0.00103011      -0.00031470      -0.00109441 </v>
   <v>      -0.00234253      -0.00093246       0.00183697 </v>
   <v>      -0.00208750      -0.00023852      -0.00133784 </v>
   <v>       0.00015566      -0.00235066       0.00062573 </v>
   <v>       0.00162120       0.00051527       0.00146161 </v>
   <v>       0.00045578       0.00171880      -0.00060505 </v>
   <v>      -0.00049155      -0.00293245      -0.00045583 </v>
   <v>       0.00088580      -0.00002835      -0.00115501 </v>
   <v>      -0.00078787      -0.00279520      -0.00153222 </v>
   <v>       0.00141729      -0.00141788      -0.00062128 </v>
   <v>      -0.00133637       0.00173992      -0.00027162 </v>
   <v>       0.00072344       0.00077114       0.00340573 </v>
   <v>       0.00401714      -0.00015428       0.00133864 </v>
   <v>      -0.00311386      -0.00577684       0.00220615 </v>
   <v>       0.00099320       0.00158233       0.00044199 </v>
   <v>      -0.00014016       0.00094020      -0.00054361 </v>
   <v>      -0.00029769       0.00085564      -0.00004349 </v>
   <v>      -0.00103128       0.00022930      -0.00077692 </v>
   <v>      -0.00114162       0.00164773       0.00325480 </v>
   <v>       0.00121146       0.00010027       0.00002219 </v>
   <v>       0.00006474       0.00153395       0.00153481 </v>
   <v>       0.00181689       0.00184358       0.00080588 </v>
   <v>       0.00022944       0.00140336      -0.00168281 </v>
   <v>       0.00135871      -0.00043270       0.00093071 </v>
   <v>      -0.00176531      -0.00167998       0.00038471 </v>
   <v>       0.00254235      -0.00040447       0.00054913 </v>
   <v>      -0.00044180      -0.00040059      -0.00125997 </v>
   <v>      -0.00069067       0.00042668      -0.00208433 </v>
   <v>       0.00089576       0.00456299      -0.00044605 </v>
   <v>       0.00530508      -0.00005025      -0.00128563 </v>
   <v>      -0.00028840      -0.00071026      -0.00017841 </v>
   <v>       0.00178809      -0.00243887      -0.00113989 </v>
   <v>       0.00567316      -0.00156828       0.00069462 </v>
   <v>      -0.00018547       0.00044527      -0.00539379 </v>
   <v>       0.00201326      -0.00120195       0.00150205 </v>
   <v>       0.00397462       0.00432121       0.00109255 </v>
   <v>      -0.00081054      -0.00011291      -0.00276593 </v>
   <v>       0.00920773      -0.01318013       0.00001563 </v>
   <v>      -0.01077872      -0.00335470      -0.00451484 </v>
   <v>      -0.01350695      -0.01003185       0.00013079 </v>
   <v>      -0.00317716       0.00470942      -0.00320639 </v>
   <v>       0.00654309       0.00332539      -0.00535288 </v>
   <v>      -0.00683142       0.01027511      -0.00434554 </v>
   <v>       0.00982506       0.00740409      -0.00221940 </v>
   <v>       0.00333055      -0.00771623      -0.00112832 </v>
   <v>       0.00203512      -0.00790037      -0.00595925 </v>
   <v>      -0.00364999       0.01929543      -0.00095616 </v>
   <v>       0.00920862      -0.00216914      -0.00187914 </v>
   <v>      -0.01482435      -0.00266622      -0.00168424 </v>
   <v>      -0.01030052      -0.00209029       0.00029844 </v>
   <v>       0.00104711      -0.00601098      -0.00295480 </v>
   <v>      -0.01170081       0.01749022       0.01068009 </v>
   <v>       0.01167722      -0.00389000      -0.00942041 </v>
   <v>      -0.00006076       0.01797856       0.00054288 </v>
   <v>      -0.00560857       0.00343250       0.00947467 </v>
   <v>      -0.00119416       0.00649760      -0.00994900 </v>
   <v>      -0.00072875      -0.00474176       0.00052689 </v>
   <v>       0.00403508      -0.00086696      -0.00066989 </v>
   <v>      -0.01928233       0.00735889       0.00275447 </v>
   <v>       0.00664504      -0.02233727       0.00706133 </v>
   <v>      -0.01300580      -0.00039695      -0.01070325 </v>
   <v>       0.00529568      -0.00067960       0.00074964 </v>
   <v>      -0.00607225       0.00942985      -0.00132467 </v>
   <v>       0.00627188      -0.01998376       0.00322966 </v>
   <v>       0.01149073      -0.00038198       0.01309402 </v>
   <v>      -0.00024590      -0.00803574      -0.01403619 </v>
   <v>       0.00025810       0.00139442       0.00060616 </v>
   <v>      -0.00281312       0.00069376       0.00031491 </v>
   <v>       0.01934068      -0.00481497       0.00129495 </v>
   <v>      -0.01608747      -0.00145798      -0.00037663 </v>
   <v>       0.01507588       0.00213692      -0.00033805 </v>
   <v>      -0.01495927       0.00357240       0.00733477 </v>
   <v>       0.01324372       0.01590811       0.00432611 </v>
   <v>      -0.00300690       0.01888151      -0.00343547 </v>
   <v>       0.00129932      -0.02233876      -0.00325192 </v>
   <v>       0.00244770       0.01336743       0.00296959 </v>
   <v>       0.01524751      -0.01351829       0.00209457 </v>
   <v>       0.02223491       0.00350634      -0.00112696 </v>
   <v>      -0.01023497      -0.01148193      -0.00019288 </v>
   <v>       0.01202487      -0.00220835       0.00304545 </v>
   <v>      -0.02738098      -0.00019657      -0.00490883 </v>
   <v>      -0.00071139      -0.02063823       0.00167840 </v>
   <v>      -0.01384404       0.00958696       0.00290979 </v>
   <v>       0.00006422       0.02514436      -0.00257721 </v>
   <v>      -0.00371504      -0.01093739       0.00610239 </v>
   <v>       0.00094669       0.02052352       0.01109563 </v>
   <v>       0.01747848       0.00192825       0.01255251 </v>
   <v>      -0.00333885      -0.02001388       0.01926430 </v>
   <v>      -0.01756708       0.00307420       0.01038246 </v>
   <v>      -0.00153000      -0.01700109      -0.00158362 </v>
   <v>      -0.00739176       0.00923180       0.00076162 </v>
   <v>      -0.00183855       0.00414196       0.01023508 </v>
   <v>       0.01639623       0.00158169       0.00381705 </v>
   <v>      -0.00906488      -0.00390715       0.00249184 </v>
   <v>       0.00518555       0.00354988       0.00006899 </v>
  </varray>
  <varray name="stress" >
   <v>      -0.01842404      -0.00606582       0.01166470 </v>
   <v>      -0.00606582      -0.02313473       0.01318086 </v>
   <v>       0.01166470       0.01318086      -0.16229680 </v>
  </varray>
  <energy>
   <i name="e_fr_energy">   -771.61434981 </i>
   <i name="e_wo_entrp">   -771.61434981 </i>
   <i name="e_0_energy">     -0.00000000 </i>
  </energy>
  <time name="totalsc"> 7238.86 7333.76</time>
  <eigenvalues>
   <array>
    <dimension dim="1">band</dimension>
    <dimension dim="2">kpoint</dimension>
    <dimension dim="3">spin</dimension>
    <field>eigene</field>
    <field>occ</field>
    <set>
     <set comment="spin 1">
      <set comment="kpoint 1">
       <r>  -27.3228    1.0000 </r>
       <r>  -27.3193    1.0000 </r>
       <r>  -25.2564    1.0000 </r>
       <r>  -25.2553    1.0000 </r>
       <r>  -24.9198    1.0000 </r>
       <r>  -24.9190    1.0000 </r>
       <r>  -24.6981    1.0000 </r>
       <r>  -24.6625    1.0000 </r>
       <r>  -23.8699    1.0000 </r>
       <r>  -23.8688    1.0000 </r>
       <r>  -23.4422    1.0000 </r>
       <r>  -23.3712    1.0000 </r>
       <r>  -22.9525    1.0000 </r>
       <r>  -22.9515    1.0000 </r>
       <r>  -22.3344    1.0000 </r>
       <r>  -22.3340    1.0000 </r>
       <r>  -21.7532    1.0000 </r>
       <r>  -21.6893    1.0000 </r>
       <r>  -21.5800    1.0000 </r>
       <r>  -21.5074    1.0000 </r>
       <r>  -20.5936    1.0000 </r>
       <r>  -20.3214    1.0000 </r>
       <r>  -20.2425    1.0000 </r>
       <r>  -19.9187    1.0000 </r>
       <r>  -19.5528    1.0000 </r>
       <r>  -19.4525    1.0000 </r>
       <r>  -19.3922    1.0000 </r>
       <r>  -19.3088    1.0000 </r>
       <r>  -18.9124    1.0000 </r>
       <r>  -18.7787    1.0000 </r>
       <r>  -18.7352    1.0000 </r>
       <r>  -18.6822    1.0000 </r>
       <r>  -18.5982    1.0000 </r>
       <r>  -18.5562    1.0000 </r>
       <r>  -18.5191    1.0000 </r>
       <r>  -18.2710    1.0000 </r>
       <r>  -18.1956    1.0000 </r>
       <r>  -18.1685    1.0000 </r>
       <r>  -17.8122    1.0000 </r>
       <r>  -17.0938    1.0000 </r>
       <r>  -17.0480    1.0000 </r>
       <r>  -16.9843    1.0000 </r>
       <r>  -16.7271    1.0000 </r>
       <r>  -16.6155    1.0000 </r>
       <r>  -16.4292    1.0000 </r>
       <r>  -15.6666    1.0000 </r>
       <r>  -15.6297    1.0000 </r>
       <r>  -15.5693    1.0000 </r>
       <r>  -15.3420    1.0000 </r>
       <r>  -15.2334    1.0000 </r>
       <r>  -15.1246    1.0000 </r>
       <r>  -15.1158    1.0000 </r>
       <r>  -15.0701    1.0000 </r>
       <r>  -15.0056    1.0000 </r>
       <r>  -14.9376    1.0000 </r>
       <r>  -14.7605    1.0000 </r>
       <r>  -14.6382    1.0000 </r>
       <r>  -14.5637    1.0000 </r>
       <r>  -14.3940    1.0000 </r>
       <r>  -14.3748    1.0000 </r>
       <r>  -14.1967    1.0000 </r>
       <r>  -14.1724    1.0000 </r>
       <r>  -14.1501    1.0000 </r>
       <r>  -13.9721    1.0000 </r>
       <r>  -13.7890    1.0000 </r>
       <r>  -13.5107    1.0000 </r>
       <r>  -13.4211    1.0000 </r>
       <r>  -13.4099    1.0000 </r>
       <r>  -13.3606    1.0000 </r>
       <r>  -13.2677    1.0000 </r>
       <r>  -13.1917    1.0000 </r>
       <r>  -12.9617    1.0000 </r>
       <r>  -12.9138    1.0000 </r>
       <r>  -12.8081    1.0000 </r>
       <r>  -12.6612    1.0000 </r>
       <r>  -12.5197    1.0000 </r>
       <r>  -12.3255    1.0000 </r>
       <r>  -12.2893    1.0000 </r>
       <r>  -12.1805    1.0000 </r>
       <r>  -12.1217    1.0000 </r>
       <r>  -12.0815    1.0000 </r>
       <r>  -11.9935    1.0000 </r>
       <r>  -11.5803    1.0000 </r>
       <r>  -11.4322    1.0000 </r>
       <r>  -11.3090    1.0000 </r>
       <r>  -11.2390    1.0000 </r>
       <r>  -11.1624    1.0000 </r>
       <r>  -11.0855    1.0000 </r>
       <r>  -11.0472    1.0000 </r>
       <r>  -11.0049    1.0000 </r>
       <r>  -10.9930    1.0000 </r>
       <r>  -10.8813    1.0000 </r>
       <r>  -10.8655    1.0000 </r>
       <r>  -10.8439    1.0000 </r>
       <r>  -10.8277    1.0000 </r>
       <r>  -10.6899    1.0000 </r>
       <r>  -10.6410    1.0000 </r>
       <r>  -10.5321    1.0000 </r>
       <r>  -10.5123    1.0000 </r>
       <r>  -10.4765    1.0000 </r>
       <r>  -10.4358    1.0000 </r>
       <r>  -10.4270    1.0000 </r>
       <r>  -10.3761    1.0000 </r>
       <r>  -10.3613    1.0000 </r>
       <r>  -10.3472    1.0000 </r>
       <r>  -10.3370    1.0000 </r>
       <r>  -10.3050    1.0000 </r>
       <r>  -10.2587    1.0000 </r>
       <r>  -10.2305    1.0000 </r>
       <r>  -10.1861    1.0000 </r>
       <r>  -10.1723    1.0000 </r>
       <r>  -10.1365    1.0000 </r>
       <r>  -10.0620    1.0000 </r>
       <r>   -9.8751    1.0000 </r>
       <r>   -9.8366    1.0000 </r>
       <r>   -9.7806    1.0000 </r>
       <r>   -9.7334    1.0000 </r>
       <r>   -9.6472    1.0000 </r>
       <r>   -9.5752    1.0000 </r>
       <r>   -9.5068    1.0000 </r>
       <r>   -9.5035    1.0000 </r>
       <r>   -9.4512    1.0000 </r>
       <r>   -9.2941    1.0000 </r>
       <r>   -9.2738    1.0000 </r>
       <r>   -9.0829    1.0000 </r>
       <r>   -9.0667    1.0000 </r>
       <r>   -9.0040    1.0000 </r>
       <r>   -8.8655    1.0000 </r>
       <r>   -8.8145    1.0000 </r>
       <r>   -8.7855    1.0000 </r>
       <r>   -8.5833    1.0000 </r>
       <r>   -8.5654    1.0000 </r>
       <r>   -8.5268    1.0000 </r>
       <r>   -8.4975    1.0000 </r>
       <r>   -8.4507    1.0000 </r>
       <r>   -8.4119    1.0000 </r>
       <r>   -8.3368    1.0000 </r>
       <r>   -8.3195    1.0000 </r>
       <r>   -8.2941    1.0000 </r>
       <r>   -8.2352    1.0000 </r>
       <r>   -8.0514    1.0000 </r>
       <r>   -8.0089    1.0000 </r>
       <r>   -7.8348    1.0000 </r>
       <r>   -7.4133    1.0000 </r>
       <r>   -7.4101    1.0000 </r>
       <r>   -7.3033    1.0000 </r>
       <r>   -7.2876    1.0000 </r>
       <r>   -7.1361    1.0000 </r>
       <r>   -7.0372    1.0000 </r>
       <r>   -7.0244    1.0000 </r>
       <r>   -6.9665    1.0000 </r>
       <r>   -6.6497    1.0000 </r>
       <r>   -6.6375    1.0000 </r>
       <r>   -6.6094    1.0000 </r>
       <r>   -6.5921    1.0000 </r>
       <r>   -6.5283    1.0000 </r>
       <r>   -6.5185    1.0000 </r>
       <r>   -6.4551    1.0000 </r>
       <r>   -6.4208    1.0000 </r>
       <r>   -6.3374    1.0000 </r>
       <r>   -6.3002    1.0000 </r>
       <r>   -6.2956    1.0000 </r>
       <r>   -6.2772    1.0000 </r>
       <r>   -6.2441    1.0000 </r>
       <r>   -6.2197    1.0000 </r>
       <r>   -6.1425    1.0000 </r>
       <r>   -6.1316    1.0000 </r>
       <r>   -5.8576    1.0000 </r>
       <r>   -5.7435    1.0000 </r>
       <r>   -5.5931    1.0000 </r>
       <r>   -5.5830    1.0000 </r>
       <r>   -5.5264    1.0000 </r>
       <r>   -5.4962    1.0000 </r>
       <r>   -5.1779    1.0000 </r>
       <r>   -4.8053    1.0000 </r>
       <r>   -3.2874    0.0000 </r>
       <r>   -3.2554    0.0000 </r>
       <r>   -2.9359    0.0000 </r>
       <r>   -2.9049    0.0000 </r>
       <r>   -2.7197    0.0000 </r>
       <r>   -2.6541    0.0000 </r>
       <r>   -2.3903    0.0000 </r>
       <r>   -2.3572    0.0000 </r>
       <r>   -1.7140    0.0000 </r>
       <r>   -1.4835    0.0000 </r>
       <r>   -1.4771    0.0000 </r>
       <r>   -1.3460    0.0000 </r>
       <r>   -1.3399    0.0000 </r>
       <r>   -1.2606    0.0000 </r>
       <r>   -1.2533    0.0000 </r>
       <r>   -0.6108    0.0000 </r>
       <r>   -0.5775    0.0000 </r>
       <r>   -0.4384    0.0000 </r>
       <r>   -0.4001    0.0000 </r>
       <r>   -0.3400    0.0000 </r>
       <r>   -0.2216    0.0000 </r>
       <r>   -0.1330    0.0000 </r>
       <r>   -0.0982    0.0000 </r>
       <r>   -0.0439    0.0000 </r>
       <r>   -0.0108    0.0000 </r>
       <r>    0.0704    0.0000 </r>
       <r>    0.0902    0.0000 </r>
       <r>    0.1978    0.0000 </r>
       <r>    0.2226    0.0000 </r>
       <r>    0.2356    0.0000 </r>
       <r>    0.2744    0.0000 </r>
       <r>    0.3100    0.0000 </r>
       <r>    0.3562    0.0000 </r>
       <r>    0.3626    0.0000 </r>
       <r>    0.3972    0.0000 </r>
       <r>    0.4202    0.0000 </r>
       <r>    0.4671    0.0000 </r>
       <r>    0.4809    0.0000 </r>
       <r>    0.5190    0.0000 </r>
       <r>    0.5833    0.0000 </r>
       <r>    0.5961    0.0000 </r>
       <r>    0.6224    0.0000 </r>
       <r>    0.6501    0.0000 </r>
       <r>    0.6876    0.0000 </r>
       <r>    0.7139    0.0000 </r>
       <r>    0.7179    0.0000 </r>
       <r>    0.7462    0.0000 </r>
       <r>    0.7796    0.0000 </r>
       <r>    0.8251    0.0000 </r>
       <r>    0.8505    0.0000 </r>
       <r>    0.8910    0.0000 </r>
       <r>    0.9079    0.0000 </r>
       <r>    0.9246    0.0000 </r>
       <r>    0.9637    0.0000 </r>
       <r>    0.9865    0.0000 </r>
       <r>    0.9951    0.0000 </r>
       <r>    1.0171    0.0000 </r>
       <r>    1.0406    0.0000 </r>
       <r>    1.0692    0.0000 </r>
       <r>    1.0792    0.0000 </r>
       <r>    1.1014    0.0000 </r>
       <r>    1.1167    0.0000 </r>
       <r>    1.1328    0.0000 </r>
       <r>    1.1447    0.0000 </r>
       <r>    1.2260    0.0000 </r>
      </set>
      <set comment="kpoint 2">
       <r>  -27.3228    1.0000 </r>
       <r>  -27.3193    1.0000 </r>
       <r>  -25.2564    1.0000 </r>
       <r>  -25.2553    1.0000 </r>
       <r>  -24.9198    1.0000 </r>
       <r>  -24.9190    1.0000 </r>
       <r>  -24.6981    1.0000 </r>
       <r>  -24.6625    1.0000 </r>
       <r>  -23.8699    1.0000 </r>
       <r>  -23.8688    1.0000 </r>
       <r>  -23.4422    1.0000 </r>
       <r>  -23.3712    1.0000 </r>
       <r>  -22.9525    1.0000 </r>
       <r>  -22.9515    1.0000 </r>
       <r>  -22.3344    1.0000 </r>
       <r>  -22.3340    1.0000 </r>
       <r>  -21.7532    1.0000 </r>
       <r>  -21.6893    1.0000 </r>
       <r>  -21.5800    1.0000 </r>
       <r>  -21.5074    1.0000 </r>
       <r>  -20.5939    1.0000 </r>
       <r>  -20.3210    1.0000 </r>
       <r>  -20.2419    1.0000 </r>
       <r>  -19.9194    1.0000 </r>
       <r>  -19.5528    1.0000 </r>
       <r>  -19.4546    1.0000 </r>
       <r>  -19.3888    1.0000 </r>
       <r>  -19.3101    1.0000 </r>
       <r>  -18.9108    1.0000 </r>
       <r>  -18.7789    1.0000 </r>
       <r>  -18.7352    1.0000 </r>
       <r>  -18.6825    1.0000 </r>
       <r>  -18.5982    1.0000 </r>
       <r>  -18.5562    1.0000 </r>
       <r>  -18.5192    1.0000 </r>
       <r>  -18.2780    1.0000 </r>
       <r>  -18.1967    1.0000 </r>
       <r>  -18.1608    1.0000 </r>
       <r>  -17.8120    1.0000 </r>
       <r>  -17.0937    1.0000 </r>
       <r>  -17.0482    1.0000 </r>
       <r>  -16.9842    1.0000 </r>
       <r>  -16.7344    1.0000 </r>
       <r>  -16.6083    1.0000 </r>
       <r>  -16.4284    1.0000 </r>
       <r>  -15.6738    1.0000 </r>
       <r>  -15.6286    1.0000 </r>
       <r>  -15.5644    1.0000 </r>
       <r>  -15.3417    1.0000 </r>
       <r>  -15.2336    1.0000 </r>
       <r>  -15.1245    1.0000 </r>
       <r>  -15.1158    1.0000 </r>
       <r>  -15.0701    1.0000 </r>
       <r>  -15.0054    1.0000 </r>
       <r>  -14.9377    1.0000 </r>
       <r>  -14.7606    1.0000 </r>
       <r>  -14.6382    1.0000 </r>
       <r>  -14.5637    1.0000 </r>
       <r>  -14.3936    1.0000 </r>
       <r>  -14.3752    1.0000 </r>
       <r>  -14.1967    1.0000 </r>
       <r>  -14.1723    1.0000 </r>
       <r>  -14.1503    1.0000 </r>
       <r>  -13.9722    1.0000 </r>
       <r>  -13.7890    1.0000 </r>
       <r>  -13.5107    1.0000 </r>
       <r>  -13.4211    1.0000 </r>
       <r>  -13.4099    1.0000 </r>
       <r>  -13.3605    1.0000 </r>
       <r>  -13.2676    1.0000 </r>
       <r>  -13.1920    1.0000 </r>
       <r>  -12.9615    1.0000 </r>
       <r>  -12.9136    1.0000 </r>
       <r>  -12.8082    1.0000 </r>
       <r>  -12.6609    1.0000 </r>
       <r>  -12.5202    1.0000 </r>
       <r>  -12.3255    1.0000 </r>
       <r>  -12.2894    1.0000 </r>
       <r>  -12.1807    1.0000 </r>
       <r>  -12.1217    1.0000 </r>
       <r>  -12.0819    1.0000 </r>
       <r>  -11.9929    1.0000 </r>
       <r>  -11.5802    1.0000 </r>
       <r>  -11.4323    1.0000 </r>
[...]
       <r>   -23.8288    38.1954    20.0000 </r>
       <r>   -23.7241     0.0000    20.0000 </r>
       <r>   -23.6193     0.0000    20.0000 </r>
       <r>   -23.5146     0.0000    20.0000 </r>
       <r>   -23.4099    19.0976    22.0000 </r>
       <r>   -23.3052    19.0977    24.0000 </r>
       <r>   -23.2004     0.0000    24.0000 </r>
       <r>   -23.0957     0.0000    24.0000 </r>
       <r>   -22.9910     0.0000    24.0000 </r>
       <r>   -22.8863    38.1954    28.0000 </r>
       <r>   -22.7815     0.0000    28.0000 </r>
       <r>   -22.6768     0.0000    28.0000 </r>
       <r>   -22.5721     0.0000    28.0000 </r>
       <r>   -22.4674     0.0000    28.0000 </r>
       <r>   -22.3626     0.0012    28.0001 </r>
       <r>   -22.2579    38.1942    32.0000 </r>
       <r>   -22.1532     0.0000    32.0000 </r>
       <r>   -22.0485     0.0000    32.0000 </r>
       <r>   -21.9437     0.0000    32.0000 </r>
       <r>   -21.8390     0.0000    32.0000 </r>
       <r>   -21.7343    19.0702    33.9971 </r>
       <r>   -21.6296    19.0977    36.0000 </r>
       <r>   -21.5248    19.5213    38.0444 </r>
       <r>   -21.4201     0.0000    40.0000 </r>
       <r>   -21.3154     0.0000    40.0000 </r>
       <r>   -21.2107     0.0000    40.0000 </r>
       <r>   -21.1059     0.0000    40.0000 </r>
       <r>   -21.0012     0.0000    40.0000 </r>
       <r>   -20.8965     0.0000    40.0000 </r>
       <r>   -20.7918     0.0000    40.0000 </r>
       <r>   -20.6870     0.0000    40.0000 </r>
       <r>   -20.5823    19.0288    41.9928 </r>
       <r>   -20.4776     0.0000    42.0000 </r>
       <r>   -20.3729     0.0000    42.0000 </r>
       <r>   -20.2681    13.8104    43.4463 </r>
       <r>   -20.1634    15.4542    45.6184 </r>
       <r>   -20.0587     0.0005    46.0000 </r>
       <r>   -19.9540    16.0153    47.6772 </r>
       <r>   -19.8493     1.5915    48.0000 </r>
       <r>   -19.7445     0.0000    48.0000 </r>
       <r>   -19.6398     0.0000    48.0000 </r>
       <r>   -19.5351    19.0168    49.9915 </r>
       <r>   -19.4304    17.5143    52.9176 </r>
       <r>   -19.3256     8.5906    54.0330 </r>
       <r>   -19.2209     5.7377    54.8175 </r>
       <r>   -19.1162     3.1178    55.2598 </r>
       <r>   -19.0115     6.0476    56.0000 </r>
       <r>   -18.9067     9.1854    56.9619 </r>
       <r>   -18.8020     5.8555    58.0132 </r>
       <r>   -18.6973    36.8102    62.1049 </r>
       <r>   -18.5926    29.4049    65.5461 </r>
       <r>   -18.4878    50.6515    71.3045 </r>
       <r>   -18.3831     3.2674    71.9089 </r>
       <r>   -18.2784     5.7483    73.0687 </r>
       <r>   -18.1737     7.0870    74.0089 </r>
       <r>   -18.0689     1.3211    74.2050 </r>
       <r>   -17.9642     2.0945    74.4693 </r>
       <r>   -17.8595     3.6051    75.0609 </r>
       <r>   -17.7548    26.6642    77.9924 </r>
       <r>   -17.6500     0.0000    78.0000 </r>
       <r>   -17.5453     0.0000    78.0000 </r>
       <r>   -17.4406     0.0000    78.0000 </r>
       <r>   -17.3359     0.0000    78.0000 </r>
       <r>   -17.2311     0.0000    78.0000 </r>
       <r>   -17.1264    14.5910    79.5280 </r>
       <r>   -17.0217    21.9623    82.0000 </r>
       <r>   -16.9170    29.6770    85.1079 </r>
       <r>   -16.8122     4.6254    85.7677 </r>
       <r>   -16.7075     1.7496    85.9999 </r>
       <r>   -16.6028     0.7355    86.0770 </r>
       <r>   -16.4981     5.2610    86.6843 </r>
       <r>   -16.3933     5.0655    87.3138 </r>
       <r>   -16.2886     9.0472    88.4141 </r>
       <r>   -16.1839    13.8458    90.0000 </r>
       <r>   -16.0792     4.9739    90.5209 </r>
       <r>   -15.9744     3.3366    90.9994 </r>
       <r>   -15.8697     4.7603    91.6152 </r>
       <r>   -15.7650     1.0281    91.7743 </r>
       <r>   -15.6603     3.0403    92.1184 </r>
       <r>   -15.5555     3.1625    94.0812 </r>
       <r>   -15.4508     2.2366    94.3842 </r>
       <r>   -15.3461    22.9994    97.1919 </r>
       <r>   -15.2414     1.9449    98.1370 </r>
       <r>   -15.1366    24.6295   101.4460 </r>
       <r>   -15.0319    36.6039   106.0000 </r>
       <r>   -14.9272    37.9832   109.9778 </r>
       <r>   -14.8225     0.0000   110.0000 </r>
       <r>   -14.7177    19.0977   112.0000 </r>
       <r>   -14.6130    19.0967   113.9999 </r>
       <r>   -14.5083    19.0977   116.0000 </r>
       <r>   -14.4036    14.7446   117.5441 </r>
       <r>   -14.2988    18.6202   120.0000 </r>
       <r>   -14.1941    13.6527   121.4298 </r>
       <r>   -14.0894    24.5083   126.0000 </r>
       <r>   -13.9847     8.2639   126.8654 </r>
       <r>   -13.8799     0.0000   128.0000 </r>
       <r>   -13.7752    16.2102   129.6976 </r>
       <r>   -13.6705     0.0000   130.0000 </r>
       <r>   -13.5658     0.0000   130.0000 </r>
       <r>   -13.4610    19.0977   132.0000 </r>
       <r>   -13.3563    44.8784   136.6999 </r>
       <r>   -13.2516    13.7202   139.4368 </r>
       <r>   -13.1469    16.3916   142.0000 </r>
       <r>   -13.0421     0.0000   142.0000 </r>
       <r>   -12.9374     6.7546   142.7074 </r>
       <r>   -12.8327    19.5794   146.1505 </r>
       <r>   -12.7280     4.4559   148.0000 </r>
       <r>   -12.6232    17.0109   149.7815 </r>
       <r>   -12.5185    18.4780   151.9351 </r>
       <r>   -12.4138     0.0000   152.0000 </r>
       <r>   -12.3091    19.1886   154.0095 </r>
       <r>   -12.2043     2.0670   156.2165 </r>
       <r>   -12.0996    36.9820   161.6063 </r>
       <r>   -11.9949     0.4737   162.0496 </r>
       <r>   -11.8902    16.5465   163.9995 </r>
       <r>   -11.7854     0.0000   164.0000 </r>
       <r>   -11.6807     0.0000   164.0000 </r>
       <r>   -11.5760     4.3142   164.4518 </r>
       <r>   -11.4713     0.8769   166.0918 </r>
       <r>   -11.3666     7.0022   168.0000 </r>
       <r>   -11.2618    21.4100   170.2422 </r>
       <r>   -11.1571    18.8151   173.8038 </r>
       <r>   -11.0524    23.6400   176.4757 </r>
       <r>   -10.9477    38.2520   182.0059 </r>
       <r>   -10.8429    38.0488   186.7513 </r>
       <r>   -10.7382     0.0000   190.0000 </r>
       <r>   -10.6335    21.4082   192.2420 </r>
       <r>   -10.5288    29.8287   195.9238 </r>
       <r>   -10.4240    66.1698   203.5296 </r>
       <r>   -10.3193    72.0626   211.5467 </r>
       <r>   -10.2146    42.5786   217.9924 </r>
       <r>   -10.1099    44.1317   223.9884 </r>
       <r>   -10.0051    18.6452   225.9526 </r>
       <r>    -9.9004    12.5101   227.3101 </r>
       <r>    -9.7957    22.9393   230.0024 </r>
       <r>    -9.6910    33.5800   234.0000 </r>
       <r>    -9.5862    31.8592   237.3364 </r>
       <r>    -9.4815    51.3435   243.3769 </r>
       <r>    -9.3768     1.4323   244.0000 </r>
       <r>    -9.2721     7.3844   244.7733 </r>
       <r>    -9.1673    24.1903   248.0000 </r>
       <r>    -9.0626    19.4442   250.0363 </r>
       <r>    -8.9579    35.9551   254.2154 </r>
       <r>    -8.8532    17.0791   256.4053 </r>
       <r>    -8.7484    21.5290   259.4046 </r>
       <r>    -8.6437    16.5491   261.4331 </r>
       <r>    -8.5390    25.0643   264.3248 </r>
       <r>    -8.4343    33.1122   269.3344 </r>
       <r>    -8.3295    28.1102   273.1606 </r>
       <r>    -8.2248    41.7688   279.6576 </r>
       <r>    -8.1201     0.0000   280.0000 </r>
       <r>    -8.0154    23.4689   282.4578 </r>
       <r>    -7.9106     0.0000   284.0000 </r>
       <r>    -7.8059    17.4253   285.8249 </r>
       <r>    -7.7012     0.0000   286.0000 </r>
       <r>    -7.5965     0.0000   286.0000 </r>
       <r>    -7.4917     0.0000   286.0000 </r>
       <r>    -7.3870    38.1473   289.9950 </r>
       <r>    -7.2823    37.7118   293.9494 </r>
       <r>    -7.1776     0.0000   294.0000 </r>
       <r>    -7.0728    21.5427   296.2561 </r>
       <r>    -6.9681    21.6860   300.0211 </r>
       <r>    -6.8634    16.8618   301.9992 </r>
       <r>    -6.7587     0.0000   302.0000 </r>
       <r>    -6.6539    10.5784   303.1078 </r>
       <r>    -6.5492    37.6893   309.9470 </r>
       <r>    -6.4445    47.3836   315.8123 </r>
       <r>    -6.3398    28.2445   320.9579 </r>
       <r>    -6.2350    68.4718   328.5540 </r>
       <r>    -6.1303    17.6865   331.8522 </r>
       <r>    -6.0256     0.0000   334.0000 </r>
       <r>    -5.9209     0.0000   334.0000 </r>
       <r>    -5.8161    19.0976   336.0000 </r>
       <r>    -5.7114    19.0977   338.0000 </r>
       <r>    -5.6067     0.0874   338.0091 </r>
       <r>    -5.5020    29.0540   343.3929 </r>
       <r>    -5.3972     0.0000   346.0000 </r>
       <r>    -5.2925     0.0000   346.0000 </r>
       <r>    -5.1878     1.8371   346.1924 </r>
       <r>    -5.0831     0.0000   348.0000 </r>
       <r>    -4.9783     0.0000   348.0000 </r>
       <r>    -4.8736     0.0001   348.0000 </r>
       <r>    -4.7689    19.0976   350.0000 </r>
       <r>    -4.6642     0.0000   350.0000 </r>
       <r>    -4.5594     0.0000   350.0000 </r>
       <r>    -4.4547     0.0000   350.0000 </r>
       <r>    -4.3500     0.0000   350.0000 </r>
       <r>    -4.2453     0.0000   350.0000 </r>
       <r>    -4.1405     0.0000   350.0000 </r>
       <r>    -4.0358     0.0000   350.0000 </r>
       <r>    -3.9311     0.0000   350.0000 </r>
       <r>    -3.8264     0.0000   350.0000 </r>
       <r>    -3.7216     0.0000   350.0000 </r>
       <r>    -3.6169     0.0000   350.0000 </r>
       <r>    -3.5122     0.0000   350.0000 </r>
       <r>    -3.4075     0.0000   350.0000 </r>
       <r>    -3.3027     0.0141   350.0015 </r>
       <r>    -3.1980    14.6337   351.7325 </r>
       <r>    -3.0933    30.3025   355.2234 </r>
       <r>    -2.9886     6.2258   356.6687 </r>
       <r>    -2.8839    10.6619   357.9999 </r>
       <r>    -2.7791     0.0000   358.0000 </r>
       <r>    -2.6744     8.1660   358.8552 </r>
       <r>    -2.5697    17.3470   362.0000 </r>
       <r>    -2.4650     0.0000   362.0000 </r>
       <r>    -2.3602    17.6744   363.8509 </r>
       <r>    -2.2555     0.0000   366.0000 </r>
       <r>    -2.1508     0.0000   366.0000 </r>
       <r>    -2.0461     0.0000   366.0000 </r>
       <r>    -1.9413     0.0000   366.0000 </r>
       <r>    -1.8366     0.0000   366.0000 </r>
       <r>    -1.7319     7.9602   366.8336 </r>
       <r>    -1.6272     0.0000   368.0000 </r>
       <r>    -1.5224     0.0000   368.0000 </r>
       <r>    -1.4177    38.1954   372.0000 </r>
       <r>    -1.3130    37.8464   375.9634 </r>
       <r>    -1.2083    38.1954   380.0000 </r>
       <r>    -1.1035     0.0000   380.0000 </r>
       <r>    -0.9988     0.0000   380.0000 </r>
       <r>    -0.8941     0.0000   380.0000 </r>
       <r>    -0.7894     0.0000   380.0000 </r>
       <r>    -0.6846     0.0000   380.0000 </r>
       <r>    -0.5799    22.4797   382.3542 </r>
       <r>    -0.4752     0.0000   384.0000 </r>
       <r>    -0.3705    38.1960   388.0001 </r>
       <r>    -0.2657    17.8999   390.0079 </r>
       <r>    -0.1610    21.7595   393.4454 </r>
       <r>    -0.0563    14.8300   395.4531 </r>
       <r>     0.0484    25.2460   399.4606 </r>
       <r>     0.1532    22.4399   404.0000 </r>
       <r>     0.2579    64.2807   410.7318 </r>
       <r>     0.3626    55.4073   418.4859 </r>
       <r>     0.4673    28.5266   422.5708 </r>
       <r>     0.5721    39.7658   427.8311 </r>
       <r>     0.6768    63.6428   436.2484 </r>
       <r>     0.7815    62.2825   445.0225 </r>
       <r>     0.8862    50.7808   451.1680 </r>
       <r>     0.9910    66.8005   460.4458 </r>
       <r>     1.0957    60.1962   468.9041 </r>
       <r>     1.2004    65.1320   478.0543 </r>
       <r>     1.3051     4.2967   480.0000 </r>
       <r>     1.4099     0.0000   480.0000 </r>
       <r>     1.5146     0.0000   480.0000 </r>
       <r>     1.6193     0.0000   480.0000 </r>
       <r>     1.7240     0.0000   480.0000 </r>
       <r>     1.8288     0.0000   480.0000 </r>
       <r>     1.9335     0.0000   480.0000 </r>
       <r>     2.0382     0.0000   480.0000 </r>
       <r>     2.1429     0.0000   480.0000 </r>
       <r>     2.2477     0.0000   480.0000 </r>
       <r>     2.3524     0.0000   480.0000 </r>
       <r>     2.4571     0.0000   480.0000 </r>
       <r>     2.5618     0.0000   480.0000 </r>
       <r>     2.6666     0.0000   480.0000 </r>
      </set>
     </set>
    </array>
   </total>
  </dos>
 </calculation>
 <structure name="finalpos" >
  <crystal>
   <varray name="basis" >
    <v>      25.37746474      -0.06525064       0.00000000 </v>
    <v>      -0.08176670      25.38496765       0.00000000 </v>
    <v>       0.00000000       0.00000000      20.00000000 </v>
   </varray>
   <i name="volume">  12884.01572154 </i>
   <varray name="rec_basis" >
    <v>       0.03940537       0.00012693       0.00000000 </v>
    <v>       0.00010129       0.03939372       0.00000000 </v>
    <v>       0.00000000       0.00000000       0.05000000 </v>
   </varray>
  </crystal>
  <varray name="positions" >
   <v>       0.98635595       0.45925922       0.41272875 </v>
   <v>       0.99030754       0.59647039       0.46552076 </v>
   <v>       0.51754032       0.98281151       0.41184204 </v>
   <v>       0.38106052       0.98798316       0.46722096 </v>
   <v>       0.04573268       0.05024939       0.51604862 </v>
   <v>       0.93034309       0.04315383       0.51339136 </v>
   <v>       0.93249385       0.92750782       0.51086220 </v>
   <v>       0.04782524       0.93467725       0.51312810 </v>
   <v>       0.00742015       0.51794787       0.52815099 </v>
   <v>       0.99961494       0.38060581       0.46932913 </v>
   <v>       0.46061341       0.00627838       0.52768548 </v>
   <v>       0.59714966       0.99697033       0.46631304 </v>
   <v>       0.01692771       0.28937619       0.41745822 </v>
   <v>       0.02085240       0.19123720       0.41980670 </v>
   <v>       0.78649487       0.01887630       0.41456999 </v>
   <v>       0.68823838       0.01411069       0.41315810 </v>
   <v>       0.96736449       0.78493822       0.41114818 </v>
   <v>       0.97148605       0.68661805       0.41255561 </v>
   <v>       0.29008311       0.97074818       0.41534284 </v>
   <v>       0.19165098       0.96756688       0.41534240 </v>
   <v>       0.97514150       0.53126402       0.36572937 </v>
   <v>       0.44477586       0.97105558       0.36659713 </v>
   <v>       0.93551407       0.28799316       0.60651805 </v>
   <v>       0.94102271       0.19027755       0.60982302 </v>
   <v>       0.08792046       0.17326979       0.52194215 </v>
   <v>       0.16533430       0.10159007       0.52075992 </v>
   <v>       0.01832058       0.02070493       0.51420030 </v>
   <v>       0.95985644       0.95711814       0.51233499 </v>
   <v>       0.87675695       0.16433652       0.51160512 </v>
   <v>       0.80507959       0.08659949       0.51228144 </v>
   <v>       0.78805676       0.94209298       0.60656349 </v>
   <v>       0.69030027       0.93578617       0.60428285 </v>
   <v>       0.81313105       0.87563964       0.50636624 </v>
   <v>       0.89077373       0.80426012       0.50779935 </v>
   <v>       0.17315331       0.89132674       0.51489674 </v>
   <v>       0.10123160       0.81339528       0.51115199 </v>
   <v>       0.02781128       0.78962601       0.61224795 </v>
   <v>       0.03215336       0.69173096       0.61355480 </v>
   <v>       0.19008198       0.02534575       0.61774534 </v>
   <v>       0.28808712       0.02879393       0.61762875 </v>
   <v>       0.02166207       0.60791719       0.56108845 </v>
   <v>       0.60749907       0.94556490       0.54677305 </v>
   <v>       0.94622280       0.37049336       0.54788102 </v>
   <v>       0.37127221       0.01833280       0.56354137 </v>
   <v>       0.06919759       0.39178560       0.54500488 </v>
   <v>       0.58763136       0.06845622       0.53925596 </v>
   <v>       0.01319649       0.45858779       0.64892500 </v>
   <v>       0.06282672       0.40150128       0.59169723 </v>
   <v>       0.52138024       0.01540793       0.64687213 </v>
   <v>       0.57844767       0.06331790       0.58638795 </v>
   <v>       0.21305983       0.98076090       0.45964478 </v>
   <v>       0.26773191       0.98246683       0.45940231 </v>
   <v>       0.98119395       0.76424540       0.45557759 </v>
   <v>       0.98347726       0.70962150       0.45607171 </v>
   <v>       0.71052315       0.99875920       0.45543829 </v>
   <v>       0.76515011       0.00138863       0.45647067 </v>
   <v>       0.00291258       0.21267797       0.46114293 </v>
   <v>       0.00074325       0.26726886       0.45953710 </v>
   <v>       0.98449554       0.51151050       0.41279210 </v>
   <v>       0.99438846       0.54185972       0.47074336 </v>
   <v>       0.46526492       0.98109175       0.41299886 </v>
   <v>       0.43579309       0.99202144       0.47127537 </v>
   <v>       0.08363591       0.13078762       0.51978476 </v>
   <v>       0.12323059       0.09415345       0.51960653 </v>
   <v>       0.09941360       0.04279586       0.51762322 </v>
   <v>       0.03418810       0.10314020       0.51676172 </v>
   <v>       0.98353487       0.12542885       0.51562304 </v>
   <v>       0.93549013       0.09696346       0.51421507 </v>
   <v>       0.87709533       0.03362604       0.51199625 </v>
   <v>       0.84764456       0.08280497       0.51229266 </v>
   <v>       0.88402954       0.12226931       0.51255442 </v>
   <v>       0.85258690       0.98348061       0.51125567 </v>
   <v>       0.87882443       0.93480144       0.51056886 </v>
   <v>       0.94418839       0.87463511       0.50980230 </v>
   <v>       0.89485632       0.84679816       0.50853064 </v>
   <v>       0.85517118       0.88332158       0.50823083 </v>
   <v>       0.99478369       0.85244819       0.51107645 </v>
   <v>       0.04273874       0.88089903       0.51248254 </v>
   <v>       0.10107132       0.94412773       0.51394142 </v>
   <v>       0.13056919       0.89495818       0.51383659 </v>
   <v>       0.09417459       0.85551167       0.51235478 </v>
   <v>       0.12558932       0.99416920       0.51615702 </v>
   <v>       0.18431620       0.99627300       0.51655318 </v>
   <v>       0.29550927       0.99989789       0.51635136 </v>
   <v>       0.26686447       0.01546086       0.57317261 </v>
   <v>       0.21199374       0.01365161       0.57328128 </v>
   <v>       0.99724169       0.79380330       0.51169571 </v>
   <v>       0.00196436       0.68276352       0.51302863 </v>
   <v>       0.01795943       0.71224043       0.56911647 </v>
   <v>       0.01558099       0.76702026       0.56848493 </v>
   <v>       0.79393053       0.98096848       0.51079258 </v>
   <v>       0.76619771       0.95750210       0.56395736 </v>
   <v>       0.71143057       0.95405968       0.56266726 </v>
   <v>       0.68294023       0.97494594       0.50865954 </v>
   <v>       0.98127782       0.18405134       0.51506889 </v>
   <v>       0.95730489       0.21197213       0.56746809 </v>
   <v>       0.97623856       0.29501151       0.51185822 </v>
   <v>       0.95430179       0.26670882       0.56557122 </v>
   <v>       0.00537870       0.62554169       0.51514279 </v>
   <v>       0.62558695       0.97148231       0.50857481 </v>
   <v>       0.97302088       0.35232646       0.51096871 </v>
   <v>       0.35282784       0.00271781       0.51762985 </v>
   <v>       0.99798486       0.43522199       0.47095728 </v>
   <v>       0.01024841       0.46551822       0.52905139 </v>
   <v>       0.02775770       0.44213639       0.59514533 </v>
   <v>       0.54251984       0.99548506       0.46913909 </v>
   <v>       0.51309457       0.00909637       0.52737970 </v>
   <v>       0.53743278       0.02840803       0.59218808 </v>
  </varray>
 </structure>
</modeling>
