<?xml version="1.0" encoding="ISO-8859-1"?>
<modeling>
 <generator>
  <i name="program" type="string">vasp </i>
  <i name="version" type="string">5.4.4.18Apr17-6-g9f103f2a35  </i>
  <i name="subversion" type="string">(build Jun 07 2020 16:50:00) complex            parallel </i>
  <i name="platform" type="string">LinuxIFC </i>
  <i name="date" type="string">2023 02 28 </i>
  <i name="time" type="string">02:24:14 </i>
 </generator>
 <incar>
  <i type="string" name="SYSTEM">Simulation for cell shape cell volume r</i>
  <i type="int" name="ISTART">     1</i>
  <i type="string" name="PREC">high</i>
  <i type="string" name="ALGO">48</i>
  <i type="int" name="ICHARG">    11</i>
  <i type="int" name="NELM">   200</i>
  <i type="int" name="IBRION">    -1</i>
  <i name="EDIFF">      0.00001000</i>
  <i name="EDIFFG">     -0.01000000</i>
  <i type="int" name="NSW">     0</i>
  <i type="int" name="ISIF">     2</i>
  <i name="ENCUT">    500.00000000</i>
  <i name="POTIM">      0.30000000</i>
  <i type="string" name="LREAL">A</i>
  <i type="int" name="ISMEAR">     0</i>
  <i name="SIGMA">      0.01000000</i>
  <i type="int" name="NWRITE">     0</i>
  <i type="logical" name="LWAVE"> F  </i>
  <i type="logical" name="LCHARG"> F  </i>
  <v type="int" name="KPOINT_BSE">    -1     0     0     0</v>
  <i type="int" name="NELM">   200</i>
  <i type="string" name="GGA">PE</i>
 </incar>
 <structure name="primitive_cell" >
  <crystal>
   <varray name="basis" >
    <v>      25.40788091       0.10470839       0.00000000 </v>
    <v>       0.08817507      25.52661222       0.00000000 </v>
    <v>       0.00000000       0.00000000      20.00000000 </v>
   </varray>
   <i name="volume">  12971.35781506 </i>
   <varray name="rec_basis" >
    <v>       0.03935843      -0.00013595       0.00000000 </v>
    <v>      -0.00016145       0.03917536       0.00000000 </v>
    <v>       0.00000000       0.00000000       0.05000000 </v>
   </varray>
  </crystal>
  <varray name="positions" >
   <v>      -0.01271427       0.46279657       0.42855547 </v>
   <v>      -0.01154344       0.44328877       0.38407079 </v>
   <v>      -0.01293281       0.43459219       0.48628018 </v>
   <v>      -0.01166107      -0.48236361       0.42572568 </v>
   <v>      -0.01039454      -0.46048517       0.37042675 </v>
   <v>      -0.01124103       0.38090311       0.47651279 </v>
   <v>      -0.01362333       0.45735430      -0.45465770 </v>
   <v>      -0.01261861      -0.45739401       0.49202036 </v>
   <v>      -0.01406717      -0.48953556      -0.45045576 </v>
   <v>      -0.02261363       0.35067121      -0.47349113 </v>
   <v>      -0.01338998      -0.40377164       0.49933529 </v>
   <v>      -0.03458138       0.36755232      -0.42502125 </v>
   <v>       0.01400279      -0.38382895       0.40352589 </v>
   <v>      -0.01543515      -0.46748647      -0.37880894 </v>
   <v>      -0.00032437      -0.37103753       0.45270606 </v>
   <v>       0.00834927       0.29241267       0.41981258 </v>
   <v>      -0.02049198       0.29404949      -0.47871421 </v>
   <v>      -0.04863529       0.46197643      -0.33265728 </v>
   <v>       0.02107898       0.46348204      -0.33175189 </v>
   <v>      -0.10137994      -0.46061321      -0.37520650 </v>
   <v>      -0.01455757       0.48781790      -0.32717042 </v>
   <v>       0.06972745      -0.45493184      -0.37400628 </v>
   <v>      -0.06948691      -0.40283487      -0.40384422 </v>
   <v>      -0.06676228      -0.43554269      -0.36853097 </v>
   <v>      -0.00339514       0.26860894       0.46246568 </v>
   <v>       0.03302830      -0.43268467      -0.36591349 </v>
   <v>       0.03315573      -0.39831491      -0.39871794 </v>
   <v>      -0.00334366      -0.31468840       0.46425982 </v>
   <v>      -0.03611370       0.26336901      -0.42373903 </v>
   <v>      -0.01551784      -0.49505595      -0.27672039 </v>
   <v>      -0.06776700      -0.41997039      -0.31723564 </v>
   <v>       0.03261235      -0.41930024      -0.31361365 </v>
   <v>      -0.04897110       0.28274759      -0.37780013 </v>
   <v>      -0.03251997      -0.31946821      -0.43465928 </v>
   <v>       0.02544734      -0.29674988       0.36524326 </v>
   <v>      -0.00195695       0.21437243       0.45920194 </v>
   <v>      -0.02080071      -0.29303823      -0.47472438 </v>
   <v>       0.01228831      -0.28043101       0.41293293 </v>
   <v>       0.01099582       0.19482901       0.41350329 </v>
   <v>      -0.03513028       0.20896411      -0.42744701 </v>
   <v>      -0.01797416       0.18353294      -0.48600342 </v>
   <v>      -0.02247172      -0.23912564      -0.46568029 </v>
   <v>       0.01097810      -0.22644035       0.42224756 </v>
   <v>       0.08841748       0.17029871      -0.49625579 </v>
   <v>      -0.04709184       0.18547048      -0.38459707 </v>
   <v>      -0.12247082       0.16567447      -0.47519706 </v>
   <v>      -0.00639620      -0.20483474       0.48311552 </v>
   <v>      -0.03551341      -0.22274423      -0.41802411 </v>
   <v>       0.02301719      -0.20028317       0.38201967 </v>
   <v>      -0.01642031       0.12544958      -0.49026134 </v>
   <v>       0.08319662       0.12843495       0.49783676 </v>
   <v>      -0.11253395      -0.19172537       0.49480501 </v>
   <v>      -0.11533160       0.12372373      -0.47684296 </v>
   <v>       0.03341463       0.10232669       0.49946597 </v>
   <v>       0.09798995      -0.18735108       0.47802451 </v>
   <v>      -0.06421594       0.09789955      -0.48383054 </v>
   <v>      -0.00782915      -0.14707326       0.49245127 </v>
   <v>       0.12185640       0.09109648       0.48959270 </v>
   <v>      -0.10744573      -0.15001258      -0.49763225 </v>
   <v>       0.16402629       0.09713163       0.48750354 </v>
   <v>       0.09110310      -0.14537612       0.48011798 </v>
   <v>      -0.15159207       0.08491103      -0.47384388 </v>
   <v>      -0.05761815      -0.12401976      -0.49693487 </v>
   <v>       0.04376893       0.04967082       0.49210170 </v>
   <v>       0.04008031      -0.11946395       0.48782361 </v>
   <v>      -0.19389813       0.08903315      -0.46805187 </v>
   <v>      -0.06944410       0.04452787      -0.48561539 </v>
   <v>       0.09709288       0.04087012       0.48615353 </v>
   <v>       0.01576300       0.02120894       0.49325472 </v>
   <v>      -0.12240895       0.03571959      -0.47982459 </v>
   <v>      -0.14617521      -0.11277054      -0.48925531 </v>
   <v>       0.12739770      -0.10662949       0.47679200 </v>
   <v>      -0.18836142      -0.11886937      -0.48880546 </v>
   <v>       0.16965018      -0.11070648       0.47039287 </v>
   <v>      -0.06800159      -0.07147356      -0.48757723 </v>
   <v>       0.17760009       0.02610205       0.37321839 </v>
   <v>       0.04543061      -0.06612498       0.49033835 </v>
   <v>      -0.21547861       0.01978970       0.42667469 </v>
   <v>       0.12275614      -0.00797321       0.48099437 </v>
   <v>      -0.12138978      -0.06267123      -0.48339189 </v>
   <v>       0.09832911      -0.05741624       0.48339051 </v>
   <v>       0.20337163       0.01304990       0.41364363 </v>
   <v>      -0.03997180      -0.04303837      -0.48797023 </v>
   <v>      -0.14693815      -0.01370823      -0.47887969 </v>
   <v>       0.18099116      -0.00635134       0.47279265 </v>
   <v>      -0.23569693       0.00392013       0.47023865 </v>
   <v>       0.27482324       0.02965993       0.35969192 </v>
   <v>       0.25779323       0.01506091       0.40618364 </v>
   <v>      -0.20544855      -0.01504604      -0.47569907 </v>
   <v>      -0.31361710       0.01574046       0.42944885 </v>
   <v>       0.21468207      -0.02361532      -0.47565935 </v>
   <v>      -0.29018968       0.00174005       0.47157691 </v>
   <v>      -0.20843384      -0.05024716      -0.37762769 </v>
   <v>       0.29150552      -0.00158541       0.45795168 </v>
   <v>       0.19748625      -0.03848987      -0.42947890 </v>
   <v>      -0.23154090      -0.03581073      -0.41983882 </v>
   <v>       0.26896723      -0.02104988      -0.48271071 </v>
   <v>      -0.31637149      -0.01900812      -0.47227930 </v>
   <v>       0.36183176       0.01741396       0.40017875 </v>
   <v>      -0.28626644      -0.03738909      -0.41790500 </v>
   <v>       0.34828815       0.00232612       0.44855938 </v>
   <v>      -0.30628441      -0.05305204      -0.37398487 </v>
   <v>       0.37233004       0.03310898      -0.40083125 </v>
   <v>       0.29496002      -0.03371633      -0.44235772 </v>
   <v>       0.42809797       0.06874146      -0.37242717 </v>
   <v>      -0.37331472      -0.02201385      -0.46931375 </v>
   <v>       0.38046264      -0.01102652       0.49603353 </v>
   <v>      -0.40281225      -0.00908719       0.48035459 </v>
   <v>       0.40605952       0.03208274      -0.36672117 </v>
   <v>       0.39137185       0.03036340      -0.31501521 </v>
   <v>       0.37817778      -0.06882036      -0.40935717 </v>
   <v>      -0.39102069      -0.03595387      -0.42230121 </v>
   <v>       0.43613267      -0.10148350      -0.38055958 </v>
   <v>       0.43447582      -0.01014333       0.49052143 </v>
   <v>       0.44000405      -0.00527465       0.36922379 </v>
   <v>       0.39392583      -0.06945791      -0.32229308 </v>
   <v>      -0.45691958      -0.01095502       0.48828576 </v>
   <v>       0.41040557      -0.06713640      -0.37307305 </v>
   <v>      -0.46365932      -0.00763168       0.38589859 </v>
   <v>       0.46087383      -0.00797849       0.42514195 </v>
   <v>      -0.48409644      -0.00968353       0.42971050 </v>
   <v>       0.44198378      -0.01588282      -0.38025026 </v>
   <v>      -0.48092250      -0.01249917      -0.45342552 </v>
   <v>       0.46561054      -0.01289523      -0.45101602 </v>
   <v>      -0.49027253       0.01920594      -0.32930494 </v>
   <v>      -0.48763440      -0.05011741      -0.33308524 </v>
   <v>       0.48576245      -0.01635920      -0.32707537 </v>
   <v>       0.46748704      -0.01863368      -0.27732436 </v>
  </varray>
 </structure>
 <varray name="primitive_index" >
  <v type="int" >        1 </v>
  <v type="int" >       21 </v>
  <v type="int" >      118 </v>
  <v type="int" >       74 </v>
  <v type="int" >       63 </v>
  <v type="int" >       10 </v>
  <v type="int" >        9 </v>
  <v type="int" >       73 </v>
  <v type="int" >      117 </v>
  <v type="int" >      115 </v>
  <v type="int" >        2 </v>
  <v type="int" >       43 </v>
  <v type="int" >       41 </v>
  <v type="int" >      119 </v>
  <v type="int" >      113 </v>
  <v type="int" >       13 </v>
  <v type="int" >      111 </v>
  <v type="int" >       47 </v>
  <v type="int" >       45 </v>
  <v type="int" >       51 </v>
  <v type="int" >      120 </v>
  <v type="int" >       48 </v>
  <v type="int" >       53 </v>
  <v type="int" >      122 </v>
  <v type="int" >       72 </v>
  <v type="int" >      121 </v>
  <v type="int" >       49 </v>
  <v type="int" >      102 </v>
  <v type="int" >      112 </v>
  <v type="int" >       46 </v>
  <v type="int" >       52 </v>
  <v type="int" >       50 </v>
  <v type="int" >       23 </v>
  <v type="int" >       38 </v>
  <v type="int" >       18 </v>
  <v type="int" >       71 </v>
  <v type="int" >      103 </v>
  <v type="int" >       68 </v>
  <v type="int" >       14 </v>
  <v type="int" >      110 </v>
  <v type="int" >      109 </v>
  <v type="int" >      104 </v>
  <v type="int" >       67 </v>
  <v type="int" >       25 </v>
  <v type="int" >       24 </v>
  <v type="int" >       29 </v>
  <v type="int" >      101 </v>
  <v type="int" >       37 </v>
  <v type="int" >       17 </v>
  <v type="int" >       81 </v>
  <v type="int" >       77 </v>
  <v type="int" >       34 </v>
  <v type="int" >       85 </v>
  <v type="int" >       80 </v>
  <v type="int" >       36 </v>
  <v type="int" >       82 </v>
  <v type="int" >       91 </v>
  <v type="int" >       78 </v>
  <v type="int" >       89 </v>
  <v type="int" >       26 </v>
  <v type="int" >       95 </v>
  <v type="int" >       84 </v>
  <v type="int" >       88 </v>
  <v type="int" >        5 </v>
  <v type="int" >       92 </v>
  <v type="int" >       30 </v>
  <v type="int" >        6 </v>
  <v type="int" >       79 </v>
  <v type="int" >       27 </v>
  <v type="int" >       83 </v>
  <v type="int" >       90 </v>
  <v type="int" >       94 </v>
  <v type="int" >       33 </v>
  <v type="int" >       35 </v>
  <v type="int" >        7 </v>
  <v type="int" >       20 </v>
  <v type="int" >        8 </v>
  <v type="int" >       15 </v>
  <v type="int" >       96 </v>
  <v type="int" >       87 </v>
  <v type="int" >       93 </v>
  <v type="int" >       65 </v>
  <v type="int" >       28 </v>
  <v type="int" >       86 </v>
  <v type="int" >       97 </v>
  <v type="int" >       70 </v>
  <v type="int" >       19 </v>
  <v type="int" >       66 </v>
  <v type="int" >      105 </v>
  <v type="int" >       16 </v>
  <v type="int" >      100 </v>
  <v type="int" >       69 </v>
  <v type="int" >       31 </v>
  <v type="int" >       98 </v>
  <v type="int" >       39 </v>
  <v type="int" >      106 </v>
  <v type="int" >       99 </v>
  <v type="int" >      108 </v>
  <v type="int" >       44 </v>
  <v type="int" >      107 </v>
  <v type="int" >      116 </v>
  <v type="int" >       32 </v>
  <v type="int" >       58 </v>
  <v type="int" >       40 </v>
  <v type="int" >       57 </v>
  <v type="int" >      114 </v>
  <v type="int" >        4 </v>
  <v type="int" >       12 </v>
  <v type="int" >      127 </v>
  <v type="int" >       59 </v>
  <v type="int" >       62 </v>
  <v type="int" >       42 </v>
  <v type="int" >       60 </v>
  <v type="int" >       75 </v>
  <v type="int" >       64 </v>
  <v type="int" >       61 </v>
  <v type="int" >      124 </v>
  <v type="int" >      128 </v>
  <v type="int" >       22 </v>
  <v type="int" >       76 </v>
  <v type="int" >        3 </v>
  <v type="int" >      125 </v>
  <v type="int" >       11 </v>
  <v type="int" >      123 </v>
  <v type="int" >       54 </v>
  <v type="int" >       56 </v>
  <v type="int" >      126 </v>
  <v type="int" >       55 </v>
 </varray>
 <kpoints>
  <generation param="listgenerated">
   <i name="divisions" type="int">      20 </i>
   <v>       0.00000000       0.00000000       0.00000000 </v>
   <v>       0.50000000       0.00000000       0.00000000 </v>
   <v>       0.50374153       0.49622317       0.00000000 </v>
   <v>       0.50000000       0.50000000       0.00000000 </v>
   <v>       0.49625847       0.50377683       0.00000000 </v>
   <v>       0.00000000       0.50000000       0.00000000 </v>
   <v>       0.00000000       0.00000000       0.00000000 </v>
  </generation>
  <varray name="kpointlist" >
   <v>       0.00000000       0.00000000       0.00000000 </v>
   <v>       0.02631579       0.00000000       0.00000000 </v>
   <v>       0.05263158       0.00000000       0.00000000 </v>
   <v>       0.07894737       0.00000000       0.00000000 </v>
   <v>       0.10526316       0.00000000       0.00000000 </v>
   <v>       0.13157895       0.00000000       0.00000000 </v>
   <v>       0.15789474       0.00000000       0.00000000 </v>
   <v>       0.18421053       0.00000000       0.00000000 </v>
   <v>       0.21052632       0.00000000       0.00000000 </v>
   <v>       0.23684211       0.00000000       0.00000000 </v>
   <v>       0.26315789       0.00000000       0.00000000 </v>
   <v>       0.28947368       0.00000000       0.00000000 </v>
   <v>       0.31578947       0.00000000       0.00000000 </v>
   <v>       0.34210526       0.00000000       0.00000000 </v>
   <v>       0.36842105       0.00000000       0.00000000 </v>
   <v>       0.39473684       0.00000000       0.00000000 </v>
   <v>       0.42105263       0.00000000       0.00000000 </v>
   <v>       0.44736842       0.00000000       0.00000000 </v>
   <v>       0.47368421       0.00000000       0.00000000 </v>
   <v>       0.50000000       0.00000000       0.00000000 </v>
   <v>       0.50000000       0.00000000       0.00000000 </v>
   <v>       0.50019692       0.02611701       0.00000000 </v>
   <v>       0.50039385       0.05223402       0.00000000 </v>
   <v>       0.50059077       0.07835103       0.00000000 </v>
   <v>       0.50078769       0.10446804       0.00000000 </v>
   <v>       0.50098461       0.13058504       0.00000000 </v>
   <v>       0.50118154       0.15670205       0.00000000 </v>
   <v>       0.50137846       0.18281906       0.00000000 </v>
   <v>       0.50157538       0.20893607       0.00000000 </v>
   <v>       0.50177230       0.23505308       0.00000000 </v>
   <v>       0.50196923       0.26117009       0.00000000 </v>
   <v>       0.50216615       0.28728710       0.00000000 </v>
   <v>       0.50236307       0.31340411       0.00000000 </v>
   <v>       0.50255999       0.33952112       0.00000000 </v>
   <v>       0.50275692       0.36563813       0.00000000 </v>
   <v>       0.50295384       0.39175513       0.00000000 </v>
   <v>       0.50315076       0.41787214       0.00000000 </v>
   <v>       0.50334768       0.44398915       0.00000000 </v>
   <v>       0.50354461       0.47010616       0.00000000 </v>
   <v>       0.50374153       0.49622317       0.00000000 </v>
   <v>       0.50374153       0.49622317       0.00000000 </v>
   <v>       0.50354461       0.49642195       0.00000000 </v>
   <v>       0.50334768       0.49662073       0.00000000 </v>
   <v>       0.50315076       0.49681951       0.00000000 </v>
   <v>       0.50295384       0.49701829       0.00000000 </v>
   <v>       0.50275692       0.49721707       0.00000000 </v>
   <v>       0.50255999       0.49741585       0.00000000 </v>
   <v>       0.50236307       0.49761463       0.00000000 </v>
   <v>       0.50216615       0.49781341       0.00000000 </v>
   <v>       0.50196923       0.49801219       0.00000000 </v>
   <v>       0.50177230       0.49821098       0.00000000 </v>
   <v>       0.50157538       0.49840976       0.00000000 </v>
   <v>       0.50137846       0.49860854       0.00000000 </v>
   <v>       0.50118154       0.49880732       0.00000000 </v>
   <v>       0.50098461       0.49900610       0.00000000 </v>
   <v>       0.50078769       0.49920488       0.00000000 </v>
   <v>       0.50059077       0.49940366       0.00000000 </v>
   <v>       0.50039385       0.49960244       0.00000000 </v>
   <v>       0.50019692       0.49980122       0.00000000 </v>
   <v>       0.50000000       0.50000000       0.00000000 </v>
   <v>       0.50000000       0.50000000       0.00000000 </v>
   <v>       0.49980308       0.50019878       0.00000000 </v>
   <v>       0.49960615       0.50039756       0.00000000 </v>
   <v>       0.49940923       0.50059634       0.00000000 </v>
   <v>       0.49921231       0.50079512       0.00000000 </v>
   <v>       0.49901539       0.50099390       0.00000000 </v>
   <v>       0.49881846       0.50119268       0.00000000 </v>
   <v>       0.49862154       0.50139146       0.00000000 </v>
   <v>       0.49842462       0.50159024       0.00000000 </v>
   <v>       0.49822770       0.50178902       0.00000000 </v>
   <v>       0.49803077       0.50198781       0.00000000 </v>
   <v>       0.49783385       0.50218659       0.00000000 </v>
   <v>       0.49763693       0.50238537       0.00000000 </v>
   <v>       0.49744001       0.50258415       0.00000000 </v>
   <v>       0.49724308       0.50278293       0.00000000 </v>
   <v>       0.49704616       0.50298171       0.00000000 </v>
   <v>       0.49684924       0.50318049       0.00000000 </v>
   <v>       0.49665232       0.50337927       0.00000000 </v>
   <v>       0.49645539       0.50357805       0.00000000 </v>
   <v>       0.49625847       0.50377683       0.00000000 </v>
   <v>       0.49625847       0.50377683       0.00000000 </v>
   <v>       0.47013960       0.50357805       0.00000000 </v>
   <v>       0.44402074       0.50337927       0.00000000 </v>
   <v>       0.41790187       0.50318049       0.00000000 </v>
   <v>       0.39178300       0.50298171       0.00000000 </v>
   <v>       0.36566414       0.50278293       0.00000000 </v>
   <v>       0.33954527       0.50258415       0.00000000 </v>
   <v>       0.31342640       0.50238537       0.00000000 </v>
   <v>       0.28730754       0.50218659       0.00000000 </v>
   <v>       0.26118867       0.50198781       0.00000000 </v>
   <v>       0.23506980       0.50178902       0.00000000 </v>
   <v>       0.20895093       0.50159024       0.00000000 </v>
   <v>       0.18283207       0.50139146       0.00000000 </v>
   <v>       0.15671320       0.50119268       0.00000000 </v>
   <v>       0.13059433       0.50099390       0.00000000 </v>
   <v>       0.10447547       0.50079512       0.00000000 </v>
   <v>       0.07835660       0.50059634       0.00000000 </v>
   <v>       0.05223773       0.50039756       0.00000000 </v>
   <v>       0.02611887       0.50019878       0.00000000 </v>
   <v>       0.00000000       0.50000000       0.00000000 </v>
   <v>       0.00000000       0.50000000       0.00000000 </v>
   <v>       0.00000000       0.47368421       0.00000000 </v>
   <v>       0.00000000       0.44736842       0.00000000 </v>
   <v>       0.00000000       0.42105263       0.00000000 </v>
   <v>       0.00000000       0.39473684       0.00000000 </v>
   <v>       0.00000000       0.36842105       0.00000000 </v>
   <v>       0.00000000       0.34210526       0.00000000 </v>
   <v>       0.00000000       0.31578947       0.00000000 </v>
   <v>       0.00000000       0.28947368       0.00000000 </v>
   <v>       0.00000000       0.26315789       0.00000000 </v>
   <v>       0.00000000       0.23684211       0.00000000 </v>
   <v>       0.00000000       0.21052632       0.00000000 </v>
   <v>       0.00000000       0.18421053       0.00000000 </v>
   <v>       0.00000000       0.15789474       0.00000000 </v>
   <v>       0.00000000       0.13157895       0.00000000 </v>
   <v>       0.00000000       0.10526316       0.00000000 </v>
   <v>       0.00000000       0.07894737       0.00000000 </v>
   <v>       0.00000000       0.05263158       0.00000000 </v>
   <v>       0.00000000       0.02631579       0.00000000 </v>
   <v>       0.00000000       0.00000000       0.00000000 </v>
  </varray>
  <varray name="weights" >
   <v>       0.00833333 </v>
   <v>       0.00833333 </v>
   <v>       0.00833333 </v>
   <v>       0.00833333 </v>
   <v>       0.00833333 </v>
   <v>       0.00833333 </v>
   <v>       0.00833333 </v>
   <v>       0.00833333 </v>
   <v>       0.00833333 </v>
   <v>       0.00833333 </v>
   <v>       0.00833333 </v>
   <v>       0.00833333 </v>
   <v>       0.00833333 </v>
   <v>       0.00833333 </v>
   <v>       0.00833333 </v>
   <v>       0.00833333 </v>
   <v>       0.00833333 </v>
   <v>       0.00833333 </v>
   <v>       0.00833333 </v>
   <v>       0.00833333 </v>
   <v>       0.00833333 </v>
   <v>       0.00833333 </v>
   <v>       0.00833333 </v>
   <v>       0.00833333 </v>
   <v>       0.00833333 </v>
   <v>       0.00833333 </v>
   <v>       0.00833333 </v>
   <v>       0.00833333 </v>
   <v>       0.00833333 </v>
   <v>       0.00833333 </v>
   <v>       0.00833333 </v>
   <v>       0.00833333 </v>
   <v>       0.00833333 </v>
   <v>       0.00833333 </v>
   <v>       0.00833333 </v>
   <v>       0.00833333 </v>
   <v>       0.00833333 </v>
   <v>       0.00833333 </v>
   <v>       0.00833333 </v>
   <v>       0.00833333 </v>
   <v>       0.00833333 </v>
   <v>       0.00833333 </v>
   <v>       0.00833333 </v>
   <v>       0.00833333 </v>
   <v>       0.00833333 </v>
   <v>       0.00833333 </v>
   <v>       0.00833333 </v>
   <v>       0.00833333 </v>
   <v>       0.00833333 </v>
   <v>       0.00833333 </v>
   <v>       0.00833333 </v>
   <v>       0.00833333 </v>
   <v>       0.00833333 </v>
   <v>       0.00833333 </v>
   <v>       0.00833333 </v>
   <v>       0.00833333 </v>
   <v>       0.00833333 </v>
   <v>       0.00833333 </v>
   <v>       0.00833333 </v>
   <v>       0.00833333 </v>
   <v>       0.00833333 </v>
   <v>       0.00833333 </v>
   <v>       0.00833333 </v>
   <v>       0.00833333 </v>
   <v>       0.00833333 </v>
   <v>       0.00833333 </v>
   <v>       0.00833333 </v>
   <v>       0.00833333 </v>
   <v>       0.00833333 </v>
   <v>       0.00833333 </v>
   <v>       0.00833333 </v>
   <v>       0.00833333 </v>
   <v>       0.00833333 </v>
   <v>       0.00833333 </v>
   <v>       0.00833333 </v>
   <v>       0.00833333 </v>
   <v>       0.00833333 </v>
   <v>       0.00833333 </v>
   <v>       0.00833333 </v>
   <v>       0.00833333 </v>
   <v>       0.00833333 </v>
   <v>       0.00833333 </v>
   <v>       0.00833333 </v>
   <v>       0.00833333 </v>
   <v>       0.00833333 </v>
   <v>       0.00833333 </v>
   <v>       0.00833333 </v>
   <v>       0.00833333 </v>
   <v>       0.00833333 </v>
   <v>       0.00833333 </v>
   <v>       0.00833333 </v>
   <v>       0.00833333 </v>
   <v>       0.00833333 </v>
   <v>       0.00833333 </v>
   <v>       0.00833333 </v>
   <v>       0.00833333 </v>
   <v>       0.00833333 </v>
   <v>       0.00833333 </v>
   <v>       0.00833333 </v>
   <v>       0.00833333 </v>
   <v>       0.00833333 </v>
   <v>       0.00833333 </v>
   <v>       0.00833333 </v>
   <v>       0.00833333 </v>
   <v>       0.00833333 </v>
   <v>       0.00833333 </v>
   <v>       0.00833333 </v>
   <v>       0.00833333 </v>
   <v>       0.00833333 </v>
   <v>       0.00833333 </v>
   <v>       0.00833333 </v>
   <v>       0.00833333 </v>
   <v>       0.00833333 </v>
   <v>       0.00833333 </v>
   <v>       0.00833333 </v>
   <v>       0.00833333 </v>
   <v>       0.00833333 </v>
   <v>       0.00833333 </v>
   <v>       0.00833333 </v>
   <v>       0.00833333 </v>
  </varray>
 </kpoints>
 <parameters>
  <separator name="general" >
   <i type="string" name="SYSTEM">Simulation for cell shape cell volume r</i>
   <i type="logical" name="LCOMPAT"> F  </i>
  </separator>
  <separator name="electronic" >
   <i type="string" name="PREC">high</i>
   <i name="ENMAX">    500.00000000</i>
   <i name="ENAUG">    644.87300000</i>
   <i name="EDIFF">      0.00001000</i>
   <i type="int" name="IALGO">    38</i>
   <i type="int" name="IWAVPR">    10</i>
   <i type="int" name="NBANDS">   256</i>
   <i name="NELECT">    378.00000000</i>
   <i type="int" name="TURBO">     0</i>
   <i type="int" name="IRESTART">     0</i>
   <i type="int" name="NREBOOT">     0</i>
   <i type="int" name="NMIN">     0</i>
   <i name="EREF">      0.00000000</i>
   <separator name="electronic smearing" >
    <i type="int" name="ISMEAR">     0</i>
    <i name="SIGMA">      0.01000000</i>
    <i name="KSPACING">      0.50000000</i>
    <i type="logical" name="KGAMMA"> T  </i>
   </separator>
   <separator name="electronic projectors" >
    <i type="logical" name="LREAL"> T  </i>
    <v name="ROPT">     -0.00040000     -0.00040000     -0.00040000     -0.00040000</v>
    <i type="int" name="LMAXPAW">  -100</i>
    <i type="int" name="LMAXMIX">     2</i>
    <i type="logical" name="NLSPLINE"> F  </i>
   </separator>
   <separator name="electronic startup" >
    <i type="int" name="ISTART">     1</i>
    <i type="int" name="ICHARG">    11</i>
    <i type="int" name="INIWAV">     1</i>
   </separator>
   <separator name="electronic spin" >
    <i type="int" name="ISPIN">     1</i>
    <i type="logical" name="LNONCOLLINEAR"> F  </i>
    <v name="MAGMOM">      1.00000000      1.00000000      1.00000000      1.00000000      1.00000000      1.00000000      1.00000000      1.00000000      1.00000000      1.00000000      1.00000000      1.00000000      1.00000000      1.00000000      1.00000000      1.00000000      1.00000000      1.00000000      1.00000000      1.00000000
      1.00000000      1.00000000      1.00000000      1.00000000      1.00000000      1.00000000      1.00000000      1.00000000      1.00000000      1.00000000      1.00000000      1.00000000      1.00000000      1.00000000      1.00000000      1.00000000      1.00000000      1.00000000      1.00000000      1.00000000
      1.00000000      1.00000000      1.00000000      1.00000000      1.00000000      1.00000000      1.00000000      1.00000000      1.00000000      1.00000000      1.00000000      1.00000000      1.00000000      1.00000000      1.00000000      1.00000000      1.00000000      1.00000000      1.00000000      1.00000000
      1.00000000      1.00000000      1.00000000      1.00000000      1.00000000      1.00000000      1.00000000      1.00000000      1.00000000      1.00000000      1.00000000      1.00000000      1.00000000      1.00000000      1.00000000      1.00000000      1.00000000      1.00000000      1.00000000      1.00000000
      1.00000000      1.00000000      1.00000000      1.00000000      1.00000000      1.00000000      1.00000000      1.00000000      1.00000000      1.00000000      1.00000000      1.00000000      1.00000000      1.00000000      1.00000000      1.00000000      1.00000000      1.00000000      1.00000000      1.00000000
      1.00000000      1.00000000      1.00000000      1.00000000      1.00000000      1.00000000      1.00000000      1.00000000      1.00000000      1.00000000      1.00000000      1.00000000      1.00000000      1.00000000      1.00000000      1.00000000      1.00000000      1.00000000      1.00000000      1.00000000
      1.00000000      1.00000000      1.00000000      1.00000000      1.00000000      1.00000000      1.00000000      1.00000000</v>
    <i name="NUPDOWN">     -1.00000000</i>
    <i type="logical" name="LSORBIT"> F  </i>
    <v name="SAXIS">      0.00000000      0.00000000      1.00000000</v>
    <i type="logical" name="LSPIRAL"> F  </i>
    <v name="QSPIRAL">      0.00000000      0.00000000      0.00000000</v>
    <i type="logical" name="LZEROZ"> F  </i>
   </separator>
   <separator name="electronic exchange-correlation" >
    <i type="logical" name="LASPH"> F  </i>
    <i type="logical" name="LMETAGGA"> F  </i>
   </separator>
   <separator name="electronic convergence" >
    <i type="int" name="NELM">   200</i>
    <i type="int" name="NELMDL">     0</i>
    <i type="int" name="NELMIN">     2</i>
    <i name="ENINI">    500.00000000</i>
    <separator name="electronic convergence detail" >
     <i type="logical" name="LDIAG"> T  </i>
     <i type="logical" name="LSUBROT"> F  </i>
     <i name="WEIMIN">      0.00000000</i>
     <i name="EBREAK">      0.00000001</i>
     <i name="DEPER">      0.30000000</i>
     <i type="int" name="NRMM">     4</i>
     <i name="TIME">      0.40000000</i>
    </separator>
   </separator>
   <separator name="electronic mixer" >
    <i name="AMIX">      0.40000000</i>
    <i name="BMIX">      1.00000000</i>
    <i name="AMIN">      0.10000000</i>
    <i name="AMIX_MAG">      1.60000000</i>
    <i name="BMIX_MAG">      1.00000000</i>
    <separator name="electronic mixer details" >
     <i type="int" name="IMIX">     4</i>
     <i type="logical" name="MIXFIRST"> F  </i>
     <i type="int" name="MAXMIX">   -45</i>
     <i name="WC">    100.00000000</i>
     <i type="int" name="INIMIX">     1</i>
     <i type="int" name="MIXPRE">     1</i>
     <i type="int" name="MREMOVE">     5</i>
    </separator>
   </separator>
   <separator name="electronic dipolcorrection" >
    <i type="logical" name="LDIPOL"> F  </i>
    <i type="logical" name="LMONO"> F  </i>
    <i type="int" name="IDIPOL">     0</i>
    <i name="EPSILON">      1.00000000</i>
    <v name="DIPOL">   -100.00000000   -100.00000000   -100.00000000</v>
    <i name="EFIELD">      0.00000000</i>
   </separator>
  </separator>
  <separator name="grids" >
   <i type="int" name="NGX">   192</i>
   <i type="int" name="NGY">   192</i>
   <i type="int" name="NGZ">   150</i>
   <i type="int" name="NGXF">   280</i>
   <i type="int" name="NGYF">   288</i>
   <i type="int" name="NGZF">   224</i>
   <i type="logical" name="ADDGRID"> F  </i>
  </separator>
  <separator name="ionic" >
   <i type="int" name="NSW">     0</i>
   <i type="int" name="IBRION">    -1</i>
   <i type="int" name="MDALGO">     0</i>
   <i type="int" name="ISIF">     2</i>
   <i name="PSTRESS">      0.00000000</i>
   <i name="EDIFFG">     -0.01000000</i>
   <i type="int" name="NFREE">     0</i>
   <i name="POTIM">      0.30000000</i>
   <i name="SMASS">     -3.00000000</i>
   <i name="SCALEE">      1.00000000</i>
  </separator>
  <separator name="ionic md" >
   <i name="TEBEG">      0.00010000</i>
   <i name="TEEND">      0.00010000</i>
   <i type="int" name="NBLOCK">     1</i>
   <i type="int" name="KBLOCK">     1</i>
   <i type="int" name="NPACO">   256</i>
   <i name="APACO">     16.00000000</i>
  </separator>
  <separator name="symmetry" >
   <i type="int" name="ISYM">     2</i>
   <i name="SYMPREC">      0.00001000</i>
  </separator>
  <separator name="dos" >
   <i type="int" name="LORBIT">     0</i>
   <v name="RWIGS">     -1.00000000     -1.00000000     -1.00000000     -1.00000000</v>
   <i type="int" name="NEDOS">   301</i>
   <i name="EMIN">     10.00000000</i>
   <i name="EMAX">    -10.00000000</i>
   <i name="EFERMI">      0.00000000</i>
  </separator>
  <separator name="writing" >
   <i type="int" name="NWRITE">     0</i>
   <i type="logical" name="LWAVE"> F  </i>
   <i type="logical" name="LDOWNSAMPLE"> F  </i>
   <i type="logical" name="LCHARG"> F  </i>
   <i type="logical" name="LPARD"> F  </i>
   <i type="logical" name="LVTOT"> F  </i>
   <i type="logical" name="LVHAR"> F  </i>
   <i type="logical" name="LELF"> F  </i>
   <i type="logical" name="LOPTICS"> F  </i>
   <v name="STM">      0.00000000      0.00000000      0.00000000      0.00000000      0.00000000      0.00000000      0.00000000</v>
  </separator>
  <separator name="performance" >
   <i type="int" name="NPAR">    16</i>
   <i type="int" name="NSIM">     4</i>
   <i type="int" name="NBLK">    -1</i>
   <i type="logical" name="LPLANE"> T  </i>
   <i type="logical" name="LSCALAPACK"> T  </i>
   <i type="logical" name="LSCAAWARE"> F  </i>
   <i type="logical" name="LSCALU"> F  </i>
   <i type="logical" name="LASYNC"> F  </i>
   <i type="logical" name="LORBITALREAL"> F  </i>
  </separator>
  <separator name="miscellaneous" >
   <i type="int" name="IDIOT">     3</i>
   <i type="int" name="ISPECIAL">     0</i>
   <i type="logical" name="LMUSIC"> F  </i>
   <v name="POMASS">     14.00100000      1.00000000     16.00000000     12.01100000</v>
   <v name="DARWINR">      0.00000000      0.00000000      0.00000000      0.00000000</v>
   <v name="DARWINV">      1.00000000      1.00000000      1.00000000      1.00000000</v>
   <i type="logical" name="LCORR"> T  </i>
  </separator>
  <i type="logical" name="GGA_COMPAT"> T  </i>
  <i type="logical" name="LBERRY"> F  </i>
  <i type="int" name="ICORELEVEL">     0</i>
  <i type="logical" name="LDAU"> F  </i>
  <i type="int" name="I_CONSTRAINED_M">     0</i>
  <separator name="electronic exchange-correlation" >
   <i type="string" name="GGA">PE</i>
   <i type="int" name="VOSKOWN">     0</i>
   <i type="logical" name="LHFCALC"> F  </i>
   <i type="string" name="PRECFOCK"></i>
   <i type="logical" name="LSYMGRAD"> F  </i>
   <i type="logical" name="LHFONE"> F  </i>
   <i type="logical" name="LRHFCALC"> F  </i>
   <i type="logical" name="LTHOMAS"> F  </i>
   <i type="logical" name="LMODELHF"> F  </i>
   <i name="ENCUT4O">     -1.00000000</i>
   <i type="int" name="EXXOEP">     0</i>
   <i type="int" name="FOURORBIT">     0</i>
   <i name="AEXX">      0.00000000</i>
   <i name="HFALPHA">      0.00000000</i>
   <i name="MCALPHA">      0.00000000</i>
   <i name="ALDAX">      1.00000000</i>
   <i name="AGGAX">      1.00000000</i>
   <i name="ALDAC">      1.00000000</i>
   <i name="AGGAC">      1.00000000</i>
   <i type="int" name="NKREDX">     1</i>
   <i type="int" name="NKREDY">     1</i>
   <i type="int" name="NKREDZ">     1</i>
   <i type="logical" name="SHIFTRED"> F  </i>
   <i type="logical" name="ODDONLY"> F  </i>
   <i type="logical" name="EVENONLY"> F  </i>
   <i type="int" name="LMAXFOCK">     0</i>
   <i type="int" name="NMAXFOCKAE">     0</i>
   <i type="logical" name="LFOCKAEDFT"> F  </i>
   <i name="HFSCREEN">      0.00000000</i>
   <i name="HFSCREENC">      0.00000000</i>
   <i type="int" name="NBANDSGWLOW">     0</i>
  </separator>
  <separator name="vdW DFT" >
   <i type="logical" name="LUSE_VDW"> F  </i>
   <i name="Zab_VDW">     -0.84910000</i>
   <i name="PARAM1">      0.12340000</i>
   <i name="PARAM2">      1.00000000</i>
   <i name="PARAM3">      0.00000000</i>
  </separator>
  <separator name="model GW" >
   <i type="int" name="MODEL_GW">     0</i>
   <i name="MODEL_EPS0">     60.80323976</i>
   <i name="MODEL_ALPHA">      1.00000000</i>
  </separator>
  <separator name="linear response parameters" >
   <i type="logical" name="LEPSILON"> F  </i>
   <i type="logical" name="LRPA"> F  </i>
   <i type="logical" name="LNABLA"> F  </i>
   <i type="logical" name="LVEL"> F  </i>
   <i type="int" name="KINTER">     0</i>
   <i name="CSHIFT">      0.10000000</i>
   <i name="OMEGAMAX">     -1.00000000</i>
   <i name="DEG_THRESHOLD">      0.00200000</i>
   <i name="RTIME">     -0.10000000</i>
   <i name="WPLASMAI">      0.00000000</i>
   <v name="DFIELD">      0.00000000      0.00000000      0.00000000</v>
   <v name="WPLASMA">      0.00000000      0.00000000      0.00000000      0.00000000      0.00000000      0.00000000      0.00000000      0.00000000      0.00000000</v>
  </separator>
  <separator name="orbital magnetization" >
   <i type="logical" name="NUCIND"> F  </i>
   <v name="MAGPOS">      0.00000000      0.00000000      0.00000000</v>
   <i type="logical" name="LNICSALL"> T  </i>
   <i type="logical" name="ORBITALMAG"> F  </i>
   <i type="logical" name="LMAGBLOCH"> F  </i>
   <i type="logical" name="LCHIMAG"> F  </i>
   <i type="logical" name="LGAUGE"> T  </i>
   <i type="int" name="MAGATOM">     0</i>
   <v name="MAGDIPOL">      0.00000000      0.00000000      0.00000000</v>
   <v name="AVECCONST">      0.00000000      0.00000000      0.00000000</v>
  </separator>
  <separator name="response functions" >
   <i type="logical" name="LADDER"> F  </i>
   <i type="logical" name="LRPAFORCE"> F  </i>
   <i type="logical" name="LFXC"> F  </i>
   <i type="logical" name="LHARTREE"> T  </i>
   <i type="int" name="IBSE">     0</i>
   <v type="int" name="KPOINT">    -1     0     0     0</v>
   <i type="logical" name="LTCTE"> F  </i>
   <i type="logical" name="LTETE"> F  </i>
   <i type="logical" name="LTRIPLET"> F  </i>
   <i type="logical" name="LFXCEPS"> F  </i>
   <i type="logical" name="LFXHEG"> F  </i>
   <i type="int" name="NATURALO">     2</i>
   <i type="logical" name="L2ORDER"> F  </i>
   <i type="logical" name="LMP2LT"> F  </i>
   <i type="logical" name="LUSEW"> F  </i>
   <i name="ENCUTGW">     -2.00000000</i>
   <i name="ENCUTGWSOFT">     -2.00000000</i>
   <i name="ENCUTLF">     -1.00000000</i>
   <i type="int" name="LMAXMP2">    -1</i>
   <i name="SCISSOR">      0.00000000</i>
   <i type="int" name="NOMEGA">     0</i>
   <i type="int" name="NOMEGAR">     0</i>
   <i type="int" name="NBANDSGW">    -1</i>
   <i type="int" name="NBANDSO">    -1</i>
   <i type="int" name="NBANDSV">    -1</i>
   <i type="int" name="NELM">   200</i>
   <i type="int" name="NELMHF">     1</i>
   <i type="int" name="DIM">     3</i>
   <i type="int" name="ANTIRES">     0</i>
   <i name="OMEGAMAX">    -30.00000000</i>
   <i name="OMEGAMIN">    -30.00000000</i>
   <i name="OMEGATL">   -200.00000000</i>
   <i type="int" name="OMEGAGRID">   140</i>
   <i name="CSHIFT">     -0.10000000</i>
   <i type="logical" name="SELFENERGY"> F  </i>
   <i type="logical" name="LSPECTRAL"> F  </i>
   <i type="logical" name="LSPECTRALGW"> F  </i>
   <i type="logical" name="LSINGLES"> F  </i>
   <i type="logical" name="LFERMIGW"> F  </i>
   <i type="logical" name="ODDONLYGW"> F  </i>
   <i type="logical" name="EVENONLYGW"> F  </i>
   <i type="int" name="NKREDLFX">     1</i>
   <i type="int" name="NKREDLFY">     1</i>
   <i type="int" name="NKREDLFZ">     1</i>
   <i type="int" name="MAXMEM">  2800</i>
   <i type="int" name="TELESCOPE">     0</i>
   <i type="int" name="TAUPAR">     1</i>
   <i type="int" name="OMEGAPAR">    -1</i>
   <i name="LAMBDA">      1.00000000</i>
  </separator>
  <separator name="External order field" >
   <i name="OFIELD_KAPPA">      0.00000000</i>
   <v name="OFIELD_K">      0.00000000      0.00000000      0.00000000</v>
   <i name="OFIELD_Q6_NEAR">      0.00000000</i>
   <i name="OFIELD_Q6_FAR">      0.00000000</i>
   <i name="OFIELD_A">      0.00000000</i>
  </separator>
  <separator name="solvation model" >
   <i type="logical" name="LSOL"> F  </i>
  </separator>
 </parameters>
 <atominfo>
  <atoms>     128 </atoms>
  <types>       4 </types>
  <array name="atoms" >
   <dimension dim="1">ion</dimension>
   <field type="string">element</field>
   <field type="int">atomtype</field>
   <set>
    <rc><c>N </c><c>   1</c></rc>
    <rc><c>N </c><c>   1</c></rc>
    <rc><c>N </c><c>   1</c></rc>
    <rc><c>N </c><c>   1</c></rc>
    <rc><c>N </c><c>   1</c></rc>
    <rc><c>N </c><c>   1</c></rc>
    <rc><c>N </c><c>   1</c></rc>
    <rc><c>N </c><c>   1</c></rc>
    <rc><c>N </c><c>   1</c></rc>
    <rc><c>N </c><c>   1</c></rc>
    <rc><c>N </c><c>   1</c></rc>
    <rc><c>N </c><c>   1</c></rc>
    <rc><c>H </c><c>   2</c></rc>
    <rc><c>H </c><c>   2</c></rc>
    <rc><c>H </c><c>   2</c></rc>
    <rc><c>H </c><c>   2</c></rc>
    <rc><c>H </c><c>   2</c></rc>
    <rc><c>H </c><c>   2</c></rc>
    <rc><c>H </c><c>   2</c></rc>
    <rc><c>H </c><c>   2</c></rc>
    <rc><c>H </c><c>   2</c></rc>
    <rc><c>H </c><c>   2</c></rc>
    <rc><c>H </c><c>   2</c></rc>
    <rc><c>H </c><c>   2</c></rc>
    <rc><c>H </c><c>   2</c></rc>
    <rc><c>H </c><c>   2</c></rc>
    <rc><c>H </c><c>   2</c></rc>
    <rc><c>H </c><c>   2</c></rc>
    <rc><c>H </c><c>   2</c></rc>
    <rc><c>H </c><c>   2</c></rc>
    <rc><c>H </c><c>   2</c></rc>
    <rc><c>H </c><c>   2</c></rc>
    <rc><c>H </c><c>   2</c></rc>
    <rc><c>H </c><c>   2</c></rc>
    <rc><c>H </c><c>   2</c></rc>
    <rc><c>H </c><c>   2</c></rc>
    <rc><c>H </c><c>   2</c></rc>
    <rc><c>H </c><c>   2</c></rc>
    <rc><c>H </c><c>   2</c></rc>
    <rc><c>H </c><c>   2</c></rc>
    <rc><c>H </c><c>   2</c></rc>
    <rc><c>H </c><c>   2</c></rc>
    <rc><c>H </c><c>   2</c></rc>
    <rc><c>H </c><c>   2</c></rc>
    <rc><c>H </c><c>   2</c></rc>
    <rc><c>H </c><c>   2</c></rc>
    <rc><c>H </c><c>   2</c></rc>
    <rc><c>H </c><c>   2</c></rc>
    <rc><c>H </c><c>   2</c></rc>
    <rc><c>H </c><c>   2</c></rc>
    <rc><c>H </c><c>   2</c></rc>
    <rc><c>H </c><c>   2</c></rc>
    <rc><c>H </c><c>   2</c></rc>
    <rc><c>H </c><c>   2</c></rc>
    <rc><c>H </c><c>   2</c></rc>
    <rc><c>H </c><c>   2</c></rc>
    <rc><c>H </c><c>   2</c></rc>
    <rc><c>H </c><c>   2</c></rc>
    <rc><c>H </c><c>   2</c></rc>
    <rc><c>H </c><c>   2</c></rc>
    <rc><c>H </c><c>   2</c></rc>
    <rc><c>H </c><c>   2</c></rc>
    <rc><c>O </c><c>   3</c></rc>
    <rc><c>O </c><c>   3</c></rc>
    <rc><c>C </c><c>   4</c></rc>
    <rc><c>C </c><c>   4</c></rc>
    <rc><c>C </c><c>   4</c></rc>
    <rc><c>C </c><c>   4</c></rc>
    <rc><c>C </c><c>   4</c></rc>
    <rc><c>C </c><c>   4</c></rc>
    <rc><c>C </c><c>   4</c></rc>
    <rc><c>C </c><c>   4</c></rc>
    <rc><c>C </c><c>   4</c></rc>
    <rc><c>C </c><c>   4</c></rc>
    <rc><c>C </c><c>   4</c></rc>
    <rc><c>C </c><c>   4</c></rc>
    <rc><c>C </c><c>   4</c></rc>
    <rc><c>C </c><c>   4</c></rc>
    <rc><c>C </c><c>   4</c></rc>
    <rc><c>C </c><c>   4</c></rc>
    <rc><c>C </c><c>   4</c></rc>
    <rc><c>C </c><c>   4</c></rc>
    <rc><c>C </c><c>   4</c></rc>
    <rc><c>C </c><c>   4</c></rc>
    <rc><c>C </c><c>   4</c></rc>
    <rc><c>C </c><c>   4</c></rc>
    <rc><c>C </c><c>   4</c></rc>
    <rc><c>C </c><c>   4</c></rc>
    <rc><c>C </c><c>   4</c></rc>
    <rc><c>C </c><c>   4</c></rc>
    <rc><c>C </c><c>   4</c></rc>
    <rc><c>C </c><c>   4</c></rc>
    <rc><c>C </c><c>   4</c></rc>
    <rc><c>C </c><c>   4</c></rc>
    <rc><c>C </c><c>   4</c></rc>
    <rc><c>C </c><c>   4</c></rc>
    <rc><c>C </c><c>   4</c></rc>
    <rc><c>C </c><c>   4</c></rc>
    <rc><c>C </c><c>   4</c></rc>
    <rc><c>C </c><c>   4</c></rc>
    <rc><c>C </c><c>   4</c></rc>
    <rc><c>C </c><c>   4</c></rc>
    <rc><c>C </c><c>   4</c></rc>
    <rc><c>C </c><c>   4</c></rc>
    <rc><c>C </c><c>   4</c></rc>
    <rc><c>C </c><c>   4</c></rc>
    <rc><c>C </c><c>   4</c></rc>
    <rc><c>C </c><c>   4</c></rc>
    <rc><c>C </c><c>   4</c></rc>
    <rc><c>C </c><c>   4</c></rc>
    <rc><c>C </c><c>   4</c></rc>
    <rc><c>C </c><c>   4</c></rc>
    <rc><c>C </c><c>   4</c></rc>
    <rc><c>C </c><c>   4</c></rc>
    <rc><c>C </c><c>   4</c></rc>
    <rc><c>C </c><c>   4</c></rc>
    <rc><c>C </c><c>   4</c></rc>
    <rc><c>C </c><c>   4</c></rc>
    <rc><c>C </c><c>   4</c></rc>
    <rc><c>C </c><c>   4</c></rc>
    <rc><c>C </c><c>   4</c></rc>
    <rc><c>C </c><c>   4</c></rc>
    <rc><c>C </c><c>   4</c></rc>
    <rc><c>C </c><c>   4</c></rc>
    <rc><c>C </c><c>   4</c></rc>
    <rc><c>C </c><c>   4</c></rc>
    <rc><c>C </c><c>   4</c></rc>
    <rc><c>C </c><c>   4</c></rc>
   </set>
  </array>
  <array name="atomtypes" >
   <dimension dim="1">type</dimension>
   <field type="int">atomspertype</field>
   <field type="string">element</field>
   <field>mass</field>
   <field>valence</field>
   <field type="string">pseudopotential</field>
   <set>
    <rc><c>  12</c><c>N </c><c>     14.00100000</c><c>      5.00000000</c><c>  PAW_PBE N 08Apr2002                   </c></rc>
    <rc><c>  50</c><c>H </c><c>      1.00000000</c><c>      1.00000000</c><c>  PAW_PBE H 15Jun2001                   </c></rc>
    <rc><c>   2</c><c>O </c><c>     16.00000000</c><c>      6.00000000</c><c>  PAW_PBE O 08Apr2002                   </c></rc>
    <rc><c>  64</c><c>C </c><c>     12.01100000</c><c>      4.00000000</c><c>  PAW_PBE C 08Apr2002                   </c></rc>
   </set>
  </array>
 </atominfo>
 <structure name="initialpos" >
  <crystal>
   <varray name="basis" >
    <v>      25.40788091       0.10470839       0.00000000 </v>
    <v>       0.08817507      25.52661222       0.00000000 </v>
    <v>       0.00000000       0.00000000      20.00000000 </v>
   </varray>
   <i name="volume">  12971.35781506 </i>
   <varray name="rec_basis" >
    <v>       0.03935843      -0.00013595       0.00000000 </v>
    <v>      -0.00016145       0.03917536       0.00000000 </v>
    <v>       0.00000000       0.00000000       0.05000000 </v>
   </varray>
  </crystal>
  <varray name="positions" >
   <v>       0.98728573       0.46279657       0.42855547 </v>
   <v>       0.98661002       0.59622836       0.49933529 </v>
   <v>       0.51590356       0.99031647       0.42971050 </v>
   <v>       0.38046264       0.98897348       0.49603353 </v>
   <v>       0.04376893       0.04967082       0.49210170 </v>
   <v>       0.93055590       0.04452787       0.51438461 </v>
   <v>       0.93199841       0.92852644       0.51242277 </v>
   <v>       0.04543061       0.93387502       0.49033835 </v>
   <v>       0.98637667       0.45735430       0.54534230 </v>
   <v>       0.98875897       0.38090311       0.47651279 </v>
   <v>       0.51907750       0.98750083       0.54657448 </v>
   <v>       0.59718775       0.99091281       0.48035459 </v>
   <v>       0.00834927       0.29241267       0.41981258 </v>
   <v>       0.01099582       0.19482901       0.41350329 </v>
   <v>       0.78452139       0.01978970       0.42667469 </v>
   <v>       0.68638290       0.01574046       0.42944885 </v>
   <v>       0.02301719       0.79971683       0.38201967 </v>
   <v>       0.02544734       0.70325012       0.36524326 </v>
   <v>       0.27482324       0.02965993       0.35969192 </v>
   <v>       0.17760009       0.02610205       0.37321839 </v>
   <v>       0.98845656       0.44328877       0.38407079 </v>
   <v>       0.53634068       0.99236832       0.38589859 </v>
   <v>       0.95102890       0.28274759       0.62219987 </v>
   <v>       0.95290816       0.18547048       0.61540293 </v>
   <v>       0.08841748       0.17029871       0.50374421 </v>
   <v>       0.16402629       0.09713163       0.48750354 </v>
   <v>       0.01576300       0.02120894       0.49325472 </v>
   <v>       0.96002820       0.95696163       0.51202977 </v>
   <v>       0.87752918       0.16567447       0.52480294 </v>
   <v>       0.80610187       0.08903315       0.53194813 </v>
   <v>       0.79156616       0.94975284       0.62237231 </v>
   <v>       0.69371559       0.94694796       0.62601513 </v>
   <v>       0.81163858       0.88113063       0.51119454 </v>
   <v>       0.88746605       0.80827463       0.49480501 </v>
   <v>       0.16965018       0.88929352       0.47039287 </v>
   <v>       0.09798995       0.81264892       0.47802451 </v>
   <v>       0.96448659       0.77725577       0.58197589 </v>
   <v>       0.96748003       0.68053179       0.56534072 </v>
   <v>       0.19748625       0.96151013       0.57052110 </v>
   <v>       0.29496002       0.96628367       0.55764228 </v>
   <v>       0.01400279       0.61617105       0.40352589 </v>
   <v>       0.60897931       0.96404613       0.57769879 </v>
   <v>       0.96541862       0.36755232       0.57497875 </v>
   <v>       0.36183176       0.01741396       0.40017875 </v>
   <v>       0.02107898       0.46348204       0.66824811 </v>
   <v>       0.98448216       0.50494405       0.72327961 </v>
   <v>       0.95136471       0.46197643       0.66734272 </v>
   <v>       0.06972745       0.54506816       0.62599372 </v>
   <v>       0.03315573       0.60168509       0.60128206 </v>
   <v>       0.03261235       0.58069976       0.68638635 </v>
   <v>       0.89862006       0.53938679       0.62479350 </v>
   <v>       0.93223300       0.58002961       0.68276436 </v>
   <v>       0.93051309       0.59716513       0.59615578 </v>
   <v>       0.50972747       0.01920594       0.67069506 </v>
   <v>       0.46748704       0.98136632       0.72267564 </v>
   <v>       0.51236560       0.94988259       0.66691476 </v>
   <v>       0.42809797       0.06874146       0.62757283 </v>
   <v>       0.37233004       0.03310898       0.59916875 </v>
   <v>       0.39137185       0.03036340       0.68498479 </v>
   <v>       0.43613267       0.89851650       0.61944042 </v>
   <v>       0.39392583       0.93054209       0.67770692 </v>
   <v>       0.37817778       0.93117964       0.59064283 </v>
   <v>       0.98960546       0.53951483       0.37042675 </v>
   <v>       0.44000405       0.99472535       0.36922379 </v>
   <v>       0.20337163       0.01304990       0.41364363 </v>
   <v>       0.25779323       0.01506091       0.40618364 </v>
   <v>       0.01097810       0.77355965       0.42224756 </v>
   <v>       0.01228831       0.71956899       0.41293293 </v>
   <v>       0.70981032       0.00174005       0.47157691 </v>
   <v>       0.76430307       0.00392013       0.47023865 </v>
   <v>       0.99804305       0.21437243       0.45920194 </v>
   <v>       0.99660486       0.26860894       0.46246568 </v>
   <v>       0.98738139       0.54260599       0.49202036 </v>
   <v>       0.98833893       0.51763639       0.42572568 </v>
   <v>       0.43447582       0.98985667       0.49052143 </v>
   <v>       0.46087383       0.99202151       0.42514195 </v>
   <v>       0.08319662       0.12843495       0.49783676 </v>
   <v>       0.12185640       0.09109648       0.48959270 </v>
   <v>       0.09709288       0.04087012       0.48615353 </v>
   <v>       0.03341463       0.10232669       0.49946597 </v>
   <v>       0.98357969       0.12544958       0.50973866 </v>
   <v>       0.93578406       0.09789955       0.51616946 </v>
   <v>       0.87759105       0.03571959       0.52017541 </v>
   <v>       0.84840793       0.08491103       0.52615612 </v>
   <v>       0.88466840       0.12372373       0.52315704 </v>
   <v>       0.85306185       0.98629177       0.52112031 </v>
   <v>       0.87861022       0.93732877       0.51660811 </v>
   <v>       0.94238185       0.87598024       0.50306513 </v>
   <v>       0.89255427       0.84998742       0.50236775 </v>
   <v>       0.85382479       0.88722946       0.51074469 </v>
   <v>       0.99217085       0.85292674       0.49245127 </v>
   <v>       0.04008031       0.88053605       0.48782361 </v>
   <v>       0.09832911       0.94258376       0.48339051 </v>
   <v>       0.12739770       0.89337051       0.47679200 </v>
   <v>       0.09110310       0.85462388       0.48011798 </v>
   <v>       0.12275614       0.99202679       0.48099437 </v>
   <v>       0.18099116       0.99364866       0.47279265 </v>
   <v>       0.29150552       0.99841459       0.45795168 </v>
   <v>       0.26896723       0.97895012       0.51728929 </v>
   <v>       0.21468207       0.97638468       0.52434065 </v>
   <v>       0.99360380       0.79516526       0.48311552 </v>
   <v>       0.99665634       0.68531160       0.46425982 </v>
   <v>       0.97919929       0.70696177       0.52527562 </v>
   <v>       0.97752828       0.76087436       0.53431971 </v>
   <v>       0.79455145       0.98495396       0.52430093 </v>
   <v>       0.76845910       0.96418927       0.58016118 </v>
   <v>       0.71373356       0.96261091       0.58209500 </v>
   <v>       0.68362851       0.98099188       0.52772070 </v>
   <v>       0.98202584       0.18353294       0.51399658 </v>
   <v>       0.96486972       0.20896411       0.57255299 </v>
   <v>       0.97950802       0.29404949       0.52128579 </v>
   <v>       0.96388630       0.26336901       0.57626097 </v>
   <v>       0.99967563       0.62896247       0.45270606 </v>
   <v>       0.62668528       0.97798615       0.53068625 </v>
   <v>       0.97738637       0.35067121       0.52650887 </v>
   <v>       0.34828815       0.00232612       0.44855938 </v>
   <v>       0.98593283       0.51046444       0.54954424 </v>
   <v>       0.98706719       0.43459219       0.48628018 </v>
   <v>       0.98456485       0.53251353       0.62119106 </v>
   <v>       0.98544243       0.48781790       0.67282958 </v>
   <v>       0.03302830       0.56731533       0.63408651 </v>
   <v>       0.93323772       0.56445731       0.63146903 </v>
   <v>       0.46561054       0.98710477       0.54898398 </v>
   <v>       0.54308042       0.98904498       0.48828576 </v>
   <v>       0.44198378       0.98411718       0.61974974 </v>
   <v>       0.48576245       0.98364080       0.67292463 </v>
   <v>       0.40605952       0.03208274       0.63327883 </v>
   <v>       0.41040557       0.93286360       0.62692695 </v>
  </varray>
 </structure>
 <calculation>
  <scstep>
   <time name="dav">  987.57  998.03</time>
   <time name="total">  987.78  998.24</time>
   <energy>
    <i name="alphaZ">     50.73657885 </i>
    <i name="ewald">  47519.34331232 </i>
    <i name="hartreedc"> -59089.76911713 </i>
    <i name="XCdc">   1317.69207630 </i>
    <i name="pawpsdc">  34223.10010768 </i>
    <i name="pawaedc"> -34289.06558209 </i>
    <i name="eentropy">     -0.00000000 </i>
    <i name="bandstr">  -4683.66182526 </i>
    <i name="atom">  14080.95154364 </i>
    <i name="e_fr_energy">   -870.67290569 </i>
    <i name="e_wo_entrp">   -870.67290569 </i>
    <i name="e_0_energy">   -870.67290569 </i>
   </energy>
  </scstep>
  <scstep>
   <time name="dav"> 1172.83 1185.30</time>
   <time name="total"> 1172.84 1185.31</time>
   <energy>
    <i name="e_fr_energy">   -871.62275771 </i>
    <i name="e_wo_entrp">   -871.62275771 </i>
    <i name="e_0_energy">   -871.62275771 </i>
   </energy>
  </scstep>
  <scstep>
   <time name="dav"> 1267.74 1281.22</time>
   <time name="total"> 1267.75 1281.23</time>
   <energy>
    <i name="e_fr_energy">   -871.64433565 </i>
    <i name="e_wo_entrp">   -871.64433565 </i>
    <i name="e_0_energy">   -871.64433565 </i>
   </energy>
  </scstep>
  <scstep>
   <time name="dav"> 1161.22 1173.45</time>
   <time name="total"> 1161.23 1173.45</time>
   <energy>
    <i name="e_fr_energy">   -871.64473847 </i>
    <i name="e_wo_entrp">   -871.64473847 </i>
    <i name="e_0_energy">   -871.64473847 </i>
   </energy>
  </scstep>
  <scstep>
   <time name="dav"> 1135.57 1147.36</time>
   <time name="total"> 1135.58 1147.36</time>
   <energy>
    <i name="e_fr_energy">   -871.64475789 </i>
    <i name="e_wo_entrp">   -871.64475789 </i>
    <i name="e_0_energy">   -871.64475789 </i>
   </energy>
  </scstep>
  <scstep>
   <time name="dav">  913.12  922.90</time>
   <time name="total">  913.12  922.90</time>
   <energy>
    <i name="alphaZ">     50.73657885 </i>
    <i name="ewald">  47519.34331232 </i>
    <i name="hartreedc"> -59089.76911713 </i>
    <i name="XCdc">   1317.69207630 </i>
    <i name="pawpsdc">  34223.10010768 </i>
    <i name="pawaedc"> -34289.06558209 </i>
    <i name="eentropy">     -0.00000000 </i>
    <i name="bandstr">  -4684.63367835 </i>
    <i name="atom">  14080.95154364 </i>
    <i name="e_fr_energy">   -871.64475877 </i>
    <i name="e_wo_entrp">   -871.64475877 </i>
    <i name="e_0_energy">   -871.64475877 </i>
   </energy>
  </scstep>
  <structure>
   <crystal>
    <varray name="basis" >
     <v>      25.40788091       0.10470839       0.00000000 </v>
     <v>       0.08817507      25.52661222       0.00000000 </v>
     <v>       0.00000000       0.00000000      20.00000000 </v>
    </varray>
    <i name="volume">  12971.35781506 </i>
    <varray name="rec_basis" >
     <v>       0.03935843      -0.00013595       0.00000000 </v>
     <v>      -0.00016145       0.03917536       0.00000000 </v>
     <v>       0.00000000       0.00000000       0.05000000 </v>
    </varray>
   </crystal>
   <varray name="positions" >
    <v>       0.98728573       0.46279657       0.42855547 </v>
    <v>       0.98661002       0.59622836       0.49933529 </v>
    <v>       0.51590356       0.99031647       0.42971050 </v>
    <v>       0.38046264       0.98897348       0.49603353 </v>
    <v>       0.04376893       0.04967082       0.49210170 </v>
    <v>       0.93055590       0.04452787       0.51438461 </v>
    <v>       0.93199841       0.92852644       0.51242277 </v>
    <v>       0.04543061       0.93387502       0.49033835 </v>
    <v>       0.98637667       0.45735430       0.54534230 </v>
    <v>       0.98875897       0.38090311       0.47651279 </v>
    <v>       0.51907750       0.98750083       0.54657448 </v>
    <v>       0.59718775       0.99091281       0.48035459 </v>
    <v>       0.00834927       0.29241267       0.41981258 </v>
    <v>       0.01099582       0.19482901       0.41350329 </v>
    <v>       0.78452139       0.01978970       0.42667469 </v>
    <v>       0.68638290       0.01574046       0.42944885 </v>
    <v>       0.02301719       0.79971683       0.38201967 </v>
    <v>       0.02544734       0.70325012       0.36524326 </v>
    <v>       0.27482324       0.02965993       0.35969192 </v>
    <v>       0.17760009       0.02610205       0.37321839 </v>
    <v>       0.98845656       0.44328877       0.38407079 </v>
    <v>       0.53634068       0.99236832       0.38589859 </v>
    <v>       0.95102890       0.28274759       0.62219987 </v>
    <v>       0.95290816       0.18547048       0.61540293 </v>
    <v>       0.08841748       0.17029871       0.50374421 </v>
    <v>       0.16402629       0.09713163       0.48750354 </v>
    <v>       0.01576300       0.02120894       0.49325472 </v>
    <v>       0.96002820       0.95696163       0.51202977 </v>
    <v>       0.87752918       0.16567447       0.52480294 </v>
    <v>       0.80610187       0.08903315       0.53194813 </v>
    <v>       0.79156616       0.94975284       0.62237231 </v>
    <v>       0.69371559       0.94694796       0.62601513 </v>
    <v>       0.81163858       0.88113063       0.51119454 </v>
    <v>       0.88746605       0.80827463       0.49480501 </v>
    <v>       0.16965018       0.88929352       0.47039287 </v>
    <v>       0.09798995       0.81264892       0.47802451 </v>
    <v>       0.96448659       0.77725577       0.58197589 </v>
    <v>       0.96748003       0.68053179       0.56534072 </v>
    <v>       0.19748625       0.96151013       0.57052110 </v>
    <v>       0.29496002       0.96628367       0.55764228 </v>
    <v>       0.01400279       0.61617105       0.40352589 </v>
    <v>       0.60897931       0.96404613       0.57769879 </v>
    <v>       0.96541862       0.36755232       0.57497875 </v>
    <v>       0.36183176       0.01741396       0.40017875 </v>
    <v>       0.02107898       0.46348204       0.66824811 </v>
    <v>       0.98448216       0.50494405       0.72327961 </v>
    <v>       0.95136471       0.46197643       0.66734272 </v>
    <v>       0.06972745       0.54506816       0.62599372 </v>
    <v>       0.03315573       0.60168509       0.60128206 </v>
    <v>       0.03261235       0.58069976       0.68638635 </v>
    <v>       0.89862006       0.53938679       0.62479350 </v>
    <v>       0.93223300       0.58002961       0.68276436 </v>
    <v>       0.93051309       0.59716513       0.59615578 </v>
    <v>       0.50972747       0.01920594       0.67069506 </v>
    <v>       0.46748704       0.98136632       0.72267564 </v>
    <v>       0.51236560       0.94988259       0.66691476 </v>
    <v>       0.42809797       0.06874146       0.62757283 </v>
    <v>       0.37233004       0.03310898       0.59916875 </v>
    <v>       0.39137185       0.03036340       0.68498479 </v>
    <v>       0.43613267       0.89851650       0.61944042 </v>
    <v>       0.39392583       0.93054209       0.67770692 </v>
    <v>       0.37817778       0.93117964       0.59064283 </v>
    <v>       0.98960546       0.53951483       0.37042675 </v>
    <v>       0.44000405       0.99472535       0.36922379 </v>
    <v>       0.20337163       0.01304990       0.41364363 </v>
    <v>       0.25779323       0.01506091       0.40618364 </v>
    <v>       0.01097810       0.77355965       0.42224756 </v>
    <v>       0.01228831       0.71956899       0.41293293 </v>
    <v>       0.70981032       0.00174005       0.47157691 </v>
    <v>       0.76430307       0.00392013       0.47023865 </v>
    <v>       0.99804305       0.21437243       0.45920194 </v>
    <v>       0.99660486       0.26860894       0.46246568 </v>
    <v>       0.98738139       0.54260599       0.49202036 </v>
    <v>       0.98833893       0.51763639       0.42572568 </v>
    <v>       0.43447582       0.98985667       0.49052143 </v>
    <v>       0.46087383       0.99202151       0.42514195 </v>
    <v>       0.08319662       0.12843495       0.49783676 </v>
    <v>       0.12185640       0.09109648       0.48959270 </v>
    <v>       0.09709288       0.04087012       0.48615353 </v>
    <v>       0.03341463       0.10232669       0.49946597 </v>
    <v>       0.98357969       0.12544958       0.50973866 </v>
    <v>       0.93578406       0.09789955       0.51616946 </v>
    <v>       0.87759105       0.03571959       0.52017541 </v>
    <v>       0.84840793       0.08491103       0.52615612 </v>
    <v>       0.88466840       0.12372373       0.52315704 </v>
    <v>       0.85306185       0.98629177       0.52112031 </v>
    <v>       0.87861022       0.93732877       0.51660811 </v>
    <v>       0.94238185       0.87598024       0.50306513 </v>
    <v>       0.89255427       0.84998742       0.50236775 </v>
    <v>       0.85382479       0.88722946       0.51074469 </v>
    <v>       0.99217085       0.85292674       0.49245127 </v>
    <v>       0.04008031       0.88053605       0.48782361 </v>
    <v>       0.09832911       0.94258376       0.48339051 </v>
    <v>       0.12739770       0.89337051       0.47679200 </v>
    <v>       0.09110310       0.85462388       0.48011798 </v>
    <v>       0.12275614       0.99202679       0.48099437 </v>
    <v>       0.18099116       0.99364866       0.47279265 </v>
    <v>       0.29150552       0.99841459       0.45795168 </v>
    <v>       0.26896723       0.97895012       0.51728929 </v>
    <v>       0.21468207       0.97638468       0.52434065 </v>
    <v>       0.99360380       0.79516526       0.48311552 </v>
    <v>       0.99665634       0.68531160       0.46425982 </v>
    <v>       0.97919929       0.70696177       0.52527562 </v>
    <v>       0.97752828       0.76087436       0.53431971 </v>
    <v>       0.79455145       0.98495396       0.52430093 </v>
    <v>       0.76845910       0.96418927       0.58016118 </v>
    <v>       0.71373356       0.96261091       0.58209500 </v>
    <v>       0.68362851       0.98099188       0.52772070 </v>
    <v>       0.98202584       0.18353294       0.51399658 </v>
    <v>       0.96486972       0.20896411       0.57255299 </v>
    <v>       0.97950802       0.29404949       0.52128579 </v>
    <v>       0.96388630       0.26336901       0.57626097 </v>
    <v>       0.99967563       0.62896247       0.45270606 </v>
    <v>       0.62668528       0.97798615       0.53068625 </v>
    <v>       0.97738637       0.35067121       0.52650887 </v>
    <v>       0.34828815       0.00232612       0.44855938 </v>
    <v>       0.98593283       0.51046444       0.54954424 </v>
    <v>       0.98706719       0.43459219       0.48628018 </v>
    <v>       0.98456485       0.53251353       0.62119106 </v>
    <v>       0.98544243       0.48781790       0.67282958 </v>
    <v>       0.03302830       0.56731533       0.63408651 </v>
    <v>       0.93323772       0.56445731       0.63146903 </v>
    <v>       0.46561054       0.98710477       0.54898398 </v>
    <v>       0.54308042       0.98904498       0.48828576 </v>
    <v>       0.44198378       0.98411718       0.61974974 </v>
    <v>       0.48576245       0.98364080       0.67292463 </v>
    <v>       0.40605952       0.03208274       0.63327883 </v>
    <v>       0.41040557       0.93286360       0.62692695 </v>
   </varray>
  </structure>
  <varray name="forces" >
   <v>      -0.00665111      -0.01776223       0.01733692 </v>
   <v>      -0.00171904       0.04708929      -0.02688431 </v>
   <v>       0.01617414      -0.00216780       0.00298972 </v>
   <v>      -0.02474323      -0.00350418      -0.01632777 </v>
   <v>      -0.01495637      -0.01179213       0.00307111 </v>
   <v>      -0.00075613      -0.00506843       0.00034222 </v>
   <v>       0.00290457       0.00202281      -0.00402283 </v>
   <v>      -0.00037035       0.00000298      -0.00330926 </v>
   <v>       0.00687767      -0.02993764      -0.01577885 </v>
   <v>       0.00216481      -0.06106624       0.01689270 </v>
   <v>       0.01832377       0.00064542      -0.01326344 </v>
   <v>       0.03889681       0.00416244       0.00578489 </v>
   <v>       0.00183072       0.00096372       0.00033032 </v>
   <v>       0.00003101      -0.00078482      -0.00236914 </v>
   <v>      -0.00124544       0.00019131       0.00401257 </v>
   <v>       0.00063392       0.00077633       0.00232399 </v>
   <v>      -0.00042567       0.00109362       0.00042093 </v>
   <v>       0.00453426       0.00014002       0.00153985 </v>
   <v>       0.00025834       0.00623409       0.00452185 </v>
   <v>      -0.00350351       0.00187816      -0.00288502 </v>
   <v>       0.00449133      -0.00459962      -0.00807163 </v>
   <v>       0.00335564      -0.00082820      -0.00145857 </v>
   <v>      -0.00225683      -0.00005112       0.00006781 </v>
   <v>       0.00036462      -0.00289811       0.00098360 </v>
   <v>      -0.00138435       0.00039659      -0.00175198 </v>
   <v>      -0.00304756       0.00088772      -0.00280910 </v>
   <v>       0.00942339       0.00799637       0.00035795 </v>
   <v>      -0.00038498       0.00093968       0.00063978 </v>
   <v>       0.00002451      -0.00154127       0.00027747 </v>
   <v>      -0.00346901       0.00259420      -0.00054824 </v>
   <v>      -0.00081541       0.00188382      -0.00271788 </v>
   <v>       0.00116730      -0.00321057      -0.00200293 </v>
   <v>      -0.00128139      -0.00345124       0.00198034 </v>
   <v>       0.00091320      -0.00239974       0.00152156 </v>
   <v>       0.00086187       0.00041369       0.00131306 </v>
   <v>       0.00064522       0.00006234       0.00068502 </v>
   <v>       0.00074862       0.00147360      -0.00090380 </v>
   <v>      -0.00394172       0.00188267      -0.00215882 </v>
   <v>      -0.00015625      -0.00261872       0.00078964 </v>
   <v>      -0.00045684      -0.00356541      -0.00432389 </v>
   <v>       0.00108100      -0.00303108      -0.00154559 </v>
   <v>      -0.00666685      -0.00655082       0.01037206 </v>
   <v>      -0.00531441       0.00424325       0.00695438 </v>
   <v>       0.00257396       0.00384363       0.00211405 </v>
   <v>      -0.00147181       0.00090297      -0.00033023 </v>
   <v>      -0.00084952      -0.00041409      -0.00074703 </v>
   <v>       0.00087361      -0.00031959       0.00019940 </v>
   <v>       0.00033248      -0.00188539       0.00021770 </v>
   <v>      -0.00089278      -0.00072769       0.00053281 </v>
   <v>       0.00094876      -0.00030282      -0.00105050 </v>
   <v>      -0.00271122      -0.00083353      -0.00069482 </v>
   <v>      -0.00143076      -0.00075559      -0.00206776 </v>
   <v>      -0.00035863      -0.00106584       0.00145719 </v>
   <v>      -0.00005661       0.00110786       0.00104544 </v>
   <v>       0.00049564       0.00107032       0.00105456 </v>
   <v>       0.00024225      -0.00208150      -0.00020977 </v>
   <v>      -0.00033923       0.00000493       0.00065769 </v>
   <v>      -0.00150056      -0.00209960      -0.00117889 </v>
   <v>      -0.00003518      -0.00036599       0.00139375 </v>
   <v>       0.00099567       0.00019247       0.00038351 </v>
   <v>      -0.00064208      -0.00183322      -0.00024853 </v>
   <v>      -0.00009981      -0.00154458      -0.00022183 </v>
   <v>       0.00445124      -0.00363605       0.00474920 </v>
   <v>       0.00114571       0.00210181      -0.00202466 </v>
   <v>      -0.01245074      -0.02201413       0.00816465 </v>
   <v>       0.01665046       0.00176479       0.00507940 </v>
   <v>      -0.02651224       0.02077188       0.00859702 </v>
   <v>      -0.00405542      -0.02500560       0.00791006 </v>
   <v>      -0.01639167      -0.00145183       0.00052792 </v>
   <v>       0.01643845      -0.01667817      -0.00004592 </v>
   <v>      -0.02225840      -0.02171379       0.00483865 </v>
   <v>      -0.00723165       0.02321447       0.00810910 </v>
   <v>       0.00600351      -0.04992386       0.00878459 </v>
   <v>      -0.00243163       0.01473484       0.00831128 </v>
   <v>       0.02852054       0.00279135       0.00360828 </v>
   <v>      -0.01659878      -0.00261161       0.01276956 </v>
   <v>       0.01644602      -0.00056444      -0.00047228 </v>
   <v>       0.00371900       0.01220735       0.00637538 </v>
   <v>       0.01425888      -0.03412505       0.00994593 </v>
   <v>      -0.03122042       0.00655981       0.01773391 </v>
   <v>       0.00287883      -0.04302120      -0.00486847 </v>
   <v>       0.02223655       0.00442085      -0.02440382 </v>
   <v>       0.00733606      -0.00866105       0.01477141 </v>
   <v>      -0.00195456       0.00348401      -0.00269387 </v>
   <v>      -0.00836438       0.00507284       0.00501194 </v>
   <v>       0.02619063      -0.01601490       0.00463094 </v>
   <v>      -0.00338688       0.03323523      -0.00868308 </v>
   <v>       0.02569476      -0.00243973      -0.02105590 </v>
   <v>      -0.01388896       0.00262810      -0.00008555 </v>
   <v>      -0.00257438      -0.01671889      -0.00221497 </v>
   <v>      -0.00728361       0.04508343       0.01366543 </v>
   <v>      -0.01932908      -0.00331406       0.02292096 </v>
   <v>      -0.00937038       0.01150932      -0.01812839 </v>
   <v>       0.00371404      -0.00430295       0.00296334 </v>
   <v>       0.00809652      -0.00063132      -0.00624732 </v>
   <v>      -0.03022099       0.01765353       0.00268733 </v>
   <v>       0.03338847       0.00199755      -0.00125240 </v>
   <v>      -0.03217108      -0.00205443       0.00375693 </v>
   <v>       0.01237168       0.00363062      -0.00847083 </v>
   <v>      -0.01673187       0.02310446      -0.00784458 </v>
   <v>      -0.00114516      -0.04708032      -0.00770445 </v>
   <v>      -0.00429536       0.04672671       0.00730870 </v>
   <v>       0.00673350      -0.02106917      -0.01488702 </v>
   <v>       0.02538029       0.02650141      -0.00332284 </v>
   <v>      -0.02712132      -0.00105934      -0.00348473 </v>
   <v>       0.01169208       0.01665393       0.00424672 </v>
   <v>      -0.01076959      -0.00003330      -0.00156582 </v>
   <v>       0.02819950       0.00183110      -0.00257217 </v>
   <v>      -0.00037489       0.04256966       0.00825424 </v>
   <v>       0.02651164      -0.01935297      -0.00943051 </v>
   <v>       0.00147688      -0.05430380      -0.00024260 </v>
   <v>       0.00479972       0.02625415      -0.01121769 </v>
   <v>      -0.00271973      -0.05092337       0.02495647 </v>
   <v>      -0.02516018       0.00366041      -0.02125858 </v>
   <v>       0.00587789       0.05536530      -0.03112042 </v>
   <v>       0.03178110       0.00146587       0.01604583 </v>
   <v>       0.00447394       0.04025265      -0.02447446 </v>
   <v>      -0.00318408       0.05678657       0.01450569 </v>
   <v>      -0.00067398       0.00401184      -0.00050659 </v>
   <v>      -0.00217768      -0.00455062       0.00013378 </v>
   <v>      -0.00266780       0.00169397       0.00105691 </v>
   <v>       0.00474583       0.00148672      -0.00030849 </v>
   <v>      -0.01687220       0.00363645      -0.01414640 </v>
   <v>      -0.04347476      -0.00448472       0.01568115 </v>
   <v>       0.00011171      -0.00028413      -0.00176736 </v>
   <v>      -0.00335163       0.00154286       0.00014640 </v>
   <v>       0.00031580      -0.00204256       0.00195627 </v>
   <v>      -0.00146015      -0.00037599       0.00161333 </v>
  </varray>
  <varray name="stress" >
   <v>       0.02938198       0.00840045       0.01161254 </v>
   <v>       0.00840045       0.04675155       0.01482754 </v>
   <v>       0.01161255       0.01482754      -0.23267890 </v>
  </varray>
  <energy>
   <i name="e_fr_energy">   -874.48112146 </i>
   <i name="e_wo_entrp">   -874.48112146 </i>
   <i name="e_0_energy">     -0.00000000 </i>
  </energy>
  <time name="totalsc"> 7769.03 7854.20</time>
  <eigenvalues>
   <array>
    <dimension dim="1">band</dimension>
    <dimension dim="2">kpoint</dimension>
    <dimension dim="3">spin</dimension>
    <field>eigene</field>
    <field>occ</field>
    <set>
     <set comment="spin 1">
      <set comment="kpoint 1">
       <r>  -25.8363    1.0000 </r>
       <r>  -25.8259    1.0000 </r>
       <r>  -24.7262    1.0000 </r>
       <r>  -24.7137    1.0000 </r>
       <r>  -24.5295    1.0000 </r>
       <r>  -24.4946    1.0000 </r>
       <r>  -23.2895    1.0000 </r>
       <r>  -23.1989    1.0000 </r>
       <r>  -22.9629    1.0000 </r>
       <r>  -22.9558    1.0000 </r>
       <r>  -22.7812    1.0000 </r>
       <r>  -22.7681    1.0000 </r>
       <r>  -22.1695    1.0000 </r>
       <r>  -22.1666    1.0000 </r>
       <r>  -21.6014    1.0000 </r>
       <r>  -21.5369    1.0000 </r>
       <r>  -21.3212    1.0000 </r>
       <r>  -21.2376    1.0000 </r>
       <r>  -20.4064    1.0000 </r>
       <r>  -20.1475    1.0000 </r>
       <r>  -20.0589    1.0000 </r>
       <r>  -19.7482    1.0000 </r>
       <r>  -19.7050    1.0000 </r>
       <r>  -19.7012    1.0000 </r>
       <r>  -19.3832    1.0000 </r>
       <r>  -19.2669    1.0000 </r>
       <r>  -18.9364    1.0000 </r>
       <r>  -18.8137    1.0000 </r>
       <r>  -18.7028    1.0000 </r>
       <r>  -18.6068    1.0000 </r>
       <r>  -18.5984    1.0000 </r>
       <r>  -18.4723    1.0000 </r>
       <r>  -18.4138    1.0000 </r>
       <r>  -18.2738    1.0000 </r>
       <r>  -18.2462    1.0000 </r>
       <r>  -18.0545    1.0000 </r>
       <r>  -17.8457    1.0000 </r>
       <r>  -17.8257    1.0000 </r>
       <r>  -17.6343    1.0000 </r>
       <r>  -16.9256    1.0000 </r>
       <r>  -16.6428    1.0000 </r>
       <r>  -16.4392    1.0000 </r>
       <r>  -16.2615    1.0000 </r>
       <r>  -16.2490    1.0000 </r>
       <r>  -16.2460    1.0000 </r>
       <r>  -16.1370    1.0000 </r>
       <r>  -16.1161    1.0000 </r>
       <r>  -16.0196    1.0000 </r>
       <r>  -16.0109    1.0000 </r>
       <r>  -15.4518    1.0000 </r>
       <r>  -15.4279    1.0000 </r>
       <r>  -15.4113    1.0000 </r>
       <r>  -15.1512    1.0000 </r>
       <r>  -15.0905    1.0000 </r>
       <r>  -14.9834    1.0000 </r>
       <r>  -14.8023    1.0000 </r>
       <r>  -14.7456    1.0000 </r>
       <r>  -14.5892    1.0000 </r>
       <r>  -14.4655    1.0000 </r>
       <r>  -14.3956    1.0000 </r>
       <r>  -14.2344    1.0000 </r>
       <r>  -14.2253    1.0000 </r>
       <r>  -14.0339    1.0000 </r>
       <r>  -13.9768    1.0000 </r>
       <r>  -13.9544    1.0000 </r>
       <r>  -13.8184    1.0000 </r>
       <r>  -13.6191    1.0000 </r>
       <r>  -13.3404    1.0000 </r>
       <r>  -13.1772    1.0000 </r>
       <r>  -13.1675    1.0000 </r>
       <r>  -13.1591    1.0000 </r>
       <r>  -13.0546    1.0000 </r>
       <r>  -13.0128    1.0000 </r>
       <r>  -12.7984    1.0000 </r>
       <r>  -12.7558    1.0000 </r>
       <r>  -12.6219    1.0000 </r>
       <r>  -12.4185    1.0000 </r>
       <r>  -12.3408    1.0000 </r>
       <r>  -12.2952    1.0000 </r>
       <r>  -12.2651    1.0000 </r>
       <r>  -12.1196    1.0000 </r>
       <r>  -12.0876    1.0000 </r>
       <r>  -11.7934    1.0000 </r>
       <r>  -11.6889    1.0000 </r>
       <r>  -11.5242    1.0000 </r>
       <r>  -11.5090    1.0000 </r>
       <r>  -11.3955    1.0000 </r>
       <r>  -11.2328    1.0000 </r>
       <r>  -11.1673    1.0000 </r>
       <r>  -11.1323    1.0000 </r>
       <r>  -11.0058    1.0000 </r>
       <r>  -10.9783    1.0000 </r>
       <r>  -10.9246    1.0000 </r>
       <r>  -10.8629    1.0000 </r>
       <r>  -10.7917    1.0000 </r>
       <r>  -10.7095    1.0000 </r>
       <r>  -10.6639    1.0000 </r>
       <r>  -10.6233    1.0000 </r>
       <r>  -10.6042    1.0000 </r>
       <r>  -10.4996    1.0000 </r>
       <r>  -10.4649    1.0000 </r>
       <r>  -10.4161    1.0000 </r>
       <r>  -10.3143    1.0000 </r>
       <r>  -10.2942    1.0000 </r>
       <r>  -10.2783    1.0000 </r>
       <r>  -10.1862    1.0000 </r>
       <r>  -10.1478    1.0000 </r>
       <r>  -10.1133    1.0000 </r>
       <r>  -10.0926    1.0000 </r>
       <r>  -10.0599    1.0000 </r>
       <r>  -10.0508    1.0000 </r>
       <r>   -9.9956    1.0000 </r>
       <r>   -9.9780    1.0000 </r>
       <r>   -9.9339    1.0000 </r>
       <r>   -9.9042    1.0000 </r>
       <r>   -9.8672    1.0000 </r>
       <r>   -9.8521    1.0000 </r>
       <r>   -9.7589    1.0000 </r>
       <r>   -9.7433    1.0000 </r>
       <r>   -9.6441    1.0000 </r>
       <r>   -9.6190    1.0000 </r>
       <r>   -9.5628    1.0000 </r>
       <r>   -9.5158    1.0000 </r>
       <r>   -9.4881    1.0000 </r>
       <r>   -9.3709    1.0000 </r>
       <r>   -9.3366    1.0000 </r>
       <r>   -9.3179    1.0000 </r>
       <r>   -9.2318    1.0000 </r>
       <r>   -9.1337    1.0000 </r>
       <r>   -9.0802    1.0000 </r>
       <r>   -8.9740    1.0000 </r>
       <r>   -8.9661    1.0000 </r>
       <r>   -8.8448    1.0000 </r>
       <r>   -8.7812    1.0000 </r>
       <r>   -8.6668    1.0000 </r>
       <r>   -8.5950    1.0000 </r>
       <r>   -8.5524    1.0000 </r>
       <r>   -8.5498    1.0000 </r>
       <r>   -8.5172    1.0000 </r>
[...]
       <r>   -20.0261    13.8707    40.3809 </r>
       <r>   -19.9266    15.0684    42.0001 </r>
       <r>   -19.8270    15.5164    43.5448 </r>
       <r>   -19.7275    15.6342    45.1897 </r>
       <r>   -19.6279    16.1722    47.5434 </r>
       <r>   -19.5284     0.0000    48.0000 </r>
       <r>   -19.4288     0.0000    48.0000 </r>
       <r>   -19.3293    20.0902    50.0000 </r>
       <r>   -19.2297    20.0902    52.0000 </r>
       <r>   -19.1302     0.0000    52.0000 </r>
       <r>   -19.0306     0.0000    52.0000 </r>
       <r>   -18.9311    13.0480    53.2989 </r>
       <r>   -18.8315     9.0293    54.6157 </r>
       <r>   -18.7320    10.5468    56.0000 </r>
       <r>   -18.6324     9.9476    56.9903 </r>
       <r>   -18.5329    47.8618    61.9992 </r>
       <r>   -18.4333    16.9893    63.6913 </r>
       <r>   -18.3338    14.1340    66.3245 </r>
       <r>   -18.2342    39.4445    71.3101 </r>
       <r>   -18.1347     1.6470    71.7306 </r>
       <r>   -18.0351     2.3422    71.9998 </r>
       <r>   -17.9356     9.9642    72.9919 </r>
       <r>   -17.8360     9.3551    73.9980 </r>
       <r>   -17.7365     2.3701    74.3026 </r>
       <r>   -17.6369     6.1851    74.9824 </r>
       <r>   -17.5374    16.5296    76.9790 </r>
       <r>   -17.4378     9.4384    77.9896 </r>
       <r>   -17.3383     0.0000    78.0000 </r>
       <r>   -17.2387     0.0000    78.0000 </r>
       <r>   -17.1392     0.0000    78.0000 </r>
       <r>   -17.0396     0.0119    78.0012 </r>
       <r>   -16.9401    17.0450    79.6980 </r>
       <r>   -16.8405    10.3722    81.0326 </r>
       <r>   -16.7410     5.1860    81.5996 </r>
       <r>   -16.6414     3.0340    81.9687 </r>
       <r>   -16.5419     0.0000    82.0000 </r>
       <r>   -16.4423     0.2597    82.0259 </r>
       <r>   -16.3428     6.8340    82.8304 </r>
       <r>   -16.2432    41.6705    87.0650 </r>
       <r>   -16.1437    16.8829    90.0641 </r>
       <r>   -16.0441    31.2209    93.9915 </r>
       <r>   -15.9446    40.1789    98.0000 </r>
       <r>   -15.8450     7.7696    98.7735 </r>
       <r>   -15.7454     2.3542    99.0677 </r>
       <r>   -15.6459     4.4289    99.5743 </r>
       <r>   -15.5463     1.5448    99.7705 </r>
       <r>   -15.4468     2.0373   100.0028 </r>
       <r>   -15.3472     8.9886   102.1961 </r>
       <r>   -15.2477     3.3555   102.5841 </r>
       <r>   -15.1481    30.2397   105.8772 </r>
       <r>   -15.0486    13.5076   107.3447 </r>
       <r>   -14.9490    20.0893   110.0000 </r>
       <r>   -14.8495     0.0000   110.0000 </r>
       <r>   -14.7499    26.7996   112.6679 </r>
       <r>   -14.6504     0.0000   114.0000 </r>
       <r>   -14.5508    20.0902   116.0000 </r>
       <r>   -14.4513    19.8759   117.9787 </r>
       <r>   -14.3517    20.0902   120.0000 </r>
       <r>   -14.2522    14.8767   121.4810 </r>
       <r>   -14.1526    20.0901   124.0000 </r>
       <r>   -14.0531     0.0073   124.0007 </r>
       <r>   -13.9535    46.1698   128.6967 </r>
       <r>   -13.8540     0.0089   130.0009 </r>
       <r>   -13.7544    20.0813   132.0000 </r>
       <r>   -13.6549     0.0000   132.0000 </r>
       <r>   -13.5553    20.0902   134.0000 </r>
       <r>   -13.4558     0.0000   134.0000 </r>
       <r>   -13.3562     0.1968   134.0196 </r>
       <r>   -13.2567     0.0000   136.0000 </r>
       <r>   -13.1571    48.3917   140.8175 </r>
       <r>   -13.0576     6.5826   142.6553 </r>
       <r>   -12.9580    20.0853   146.0000 </r>
       <r>   -12.8585     0.0000   146.0000 </r>
       <r>   -12.7589    21.3420   148.1246 </r>
       <r>   -12.6594    10.5919   150.0546 </r>
       <r>   -12.5598     7.6966   152.0000 </r>
       <r>   -12.4603     0.0056   152.0006 </r>
       <r>   -12.3607    20.0994   154.0015 </r>
       <r>   -12.2612    52.0761   159.3516 </r>
       <r>   -12.1616     0.0000   160.0000 </r>
       <r>   -12.0621    40.1798   163.9999 </r>
       <r>   -11.9625     0.0000   164.0000 </r>
       <r>   -11.8630     0.0000   164.0000 </r>
       <r>   -11.7634    18.2417   165.8160 </r>
       <r>   -11.6639    20.0897   168.0000 </r>
       <r>   -11.5643     0.0000   168.0000 </r>
       <r>   -11.4647    40.1658   171.9986 </r>
       <r>   -11.3652    20.0899   174.0000 </r>
       <r>   -11.2656    12.5814   175.2525 </r>
       <r>   -11.1661    13.9115   177.1016 </r>
       <r>   -11.0665    20.0889   179.9999 </r>
       <r>   -10.9670    39.2337   183.9058 </r>
       <r>   -10.8674    24.0222   186.3914 </r>
       <r>   -10.7679    20.0802   189.9990 </r>
       <r>   -10.6683    30.8920   193.0753 </r>
       <r>   -10.5688    21.1690   197.6075 </r>
       <r>   -10.4692    32.5679   201.2422 </r>
       <r>   -10.3697    20.0901   204.0000 </r>
       <r>   -10.2701    40.0816   207.9902 </r>
       <r>   -10.1706    33.6916   212.4216 </r>
       <r>   -10.0710    45.8085   219.3107 </r>
       <r>    -9.9715    22.9654   224.1200 </r>
       <r>    -9.8719    36.4540   229.6290 </r>
       <r>    -9.7724    28.4609   234.6508 </r>
       <r>    -9.6728    34.4854   239.4331 </r>
       <r>    -9.5733    35.1664   243.3176 </r>
       <r>    -9.4737    29.8978   246.9764 </r>
       <r>    -9.3742    17.9384   249.7858 </r>
       <r>    -9.2746    30.9661   254.0000 </r>
       <r>    -9.1751    20.0902   256.0000 </r>
       <r>    -9.0755    11.5583   257.1506 </r>
       <r>    -8.9760    37.2410   261.2243 </r>
       <r>    -8.8764     0.0019   264.0002 </r>
       <r>    -8.7769    39.6048   267.9429 </r>
       <r>    -8.6773     2.5955   268.2584 </r>
       <r>    -8.5778    19.9955   271.9906 </r>
       <r>    -8.4782    60.2664   278.0000 </r>
       <r>    -8.3787    14.3082   279.4244 </r>
       <r>    -8.2791    56.2678   285.6015 </r>
       <r>    -8.1796    20.0901   290.0000 </r>
       <r>    -8.0800    19.2398   291.9153 </r>
       <r>    -7.9805    53.1709   297.9102 </r>
       <r>    -7.8809    42.8106   303.9964 </r>
       <r>    -7.7814    40.1803   308.0000 </r>
       <r>    -7.6818     0.0722   308.0072 </r>
       <r>    -7.5823    11.8847   309.9999 </r>
       <r>    -7.4827     7.7834   310.7748 </r>
       <r>    -7.3831    16.0696   314.0000 </r>
       <r>    -7.2836     3.5860   314.3570 </r>
       <r>    -7.1840     0.0000   318.0000 </r>
       <r>    -7.0845     0.0603   318.0060 </r>
       <r>    -6.9849    27.7071   321.2250 </r>
       <r>    -6.8854    16.0861   323.6014 </r>
       <r>    -6.7858    11.0224   324.8807 </r>
       <r>    -6.6863     9.0398   326.0000 </r>
       <r>    -6.5867     0.0000   326.0000 </r>
       <r>    -6.4872    40.1309   329.9951 </r>
       <r>    -6.3876    10.2547   331.0209 </r>
       <r>    -6.2881    78.5886   341.8248 </r>
       <r>    -6.1885    39.0609   346.1054 </r>
       <r>    -6.0890    58.1928   354.0111 </r>
       <r>    -5.9894    20.0902   358.0000 </r>
       <r>    -5.8899    40.1801   362.0000 </r>
       <r>    -5.7903     0.0000   362.0000 </r>
       <r>    -5.6908    11.6090   363.1557 </r>
       <r>    -5.5912     0.0112   364.0011 </r>
       <r>    -5.4917    20.0789   366.0000 </r>
       <r>    -5.3921     0.0000   366.0000 </r>
       <r>    -5.2926     0.0000   366.0000 </r>
       <r>    -5.1930     0.0000   366.0000 </r>
       <r>    -5.0935    40.0920   369.9912 </r>
       <r>    -4.9939    19.7178   371.9629 </r>
       <r>    -4.8944     0.0000   372.0000 </r>
       <r>    -4.7948    11.0193   373.0970 </r>
       <r>    -4.6953     9.6931   374.3818 </r>
       <r>    -4.5957     3.2189   376.3204 </r>
       <r>    -4.4962    14.4079   377.8677 </r>
       <r>    -4.3966     0.0000   378.0000 </r>
       <r>    -4.2971     0.0000   378.0000 </r>
       <r>    -4.1975     0.0000   378.0000 </r>
       <r>    -4.0980     0.0000   378.0000 </r>
       <r>    -3.9984     0.0000   378.0000 </r>
       <r>    -3.8989     0.0000   378.0000 </r>
       <r>    -3.7993     0.0000   378.0000 </r>
       <r>    -3.6998     0.0000   378.0000 </r>
       <r>    -3.6002     0.0000   378.0000 </r>
       <r>    -3.5007     0.0000   378.0000 </r>
       <r>    -3.4011     0.0000   378.0000 </r>
       <r>    -3.3016     0.0000   378.0000 </r>
       <r>    -3.2020     0.4307   378.0429 </r>
       <r>    -3.1024    18.6982   380.9948 </r>
       <r>    -3.0029     8.0356   382.0000 </r>
       <r>    -2.9033     0.0134   382.0013 </r>
       <r>    -2.8038    10.2923   383.4080 </r>
       <r>    -2.7042    23.5975   385.9999 </r>
       <r>    -2.6047     0.0000   386.0000 </r>
       <r>    -2.5051     0.0000   386.0000 </r>
       <r>    -2.4056     0.0000   386.0000 </r>
       <r>    -2.3060     0.0000   386.0000 </r>
       <r>    -2.2065     0.0001   386.0000 </r>
       <r>    -2.1069    20.4513   388.0360 </r>
       <r>    -2.0074     7.5325   390.0000 </r>
       <r>    -1.9078     0.0000   390.0000 </r>
       <r>    -1.8083     0.0000   390.0000 </r>
       <r>    -1.7087     0.0000   390.0000 </r>
       <r>    -1.6092     0.0000   390.0000 </r>
       <r>    -1.5096    20.0037   391.9914 </r>
       <r>    -1.4101     0.0000   392.0000 </r>
       <r>    -1.3105    40.0876   395.9908 </r>
       <r>    -1.2110    39.7794   399.9601 </r>
       <r>    -1.1114     0.0000   400.0000 </r>
       <r>    -1.0119    26.6247   402.6505 </r>
       <r>    -0.9123     0.0000   404.0000 </r>
       <r>    -0.8128     0.0000   404.0000 </r>
       <r>    -0.7132    31.2909   407.1150 </r>
       <r>    -0.6137     0.0000   408.0000 </r>
       <r>    -0.5141     0.0000   408.0000 </r>
       <r>    -0.4146     0.0000   408.0000 </r>
       <r>    -0.3150     0.0037   408.0004 </r>
       <r>    -0.2155    28.1014   410.7979 </r>
       <r>    -0.1159    15.5838   413.1181 </r>
       <r>    -0.0164    40.1344   417.8790 </r>
       <r>     0.0832    34.2766   421.7123 </r>
       <r>     0.1827    43.5026   426.9654 </r>
       <r>     0.2823    28.6606   430.8200 </r>
       <r>     0.3818    32.5787   435.3601 </r>
       <r>     0.4814    46.6347   440.7261 </r>
       <r>     0.5809    72.8805   449.4735 </r>
       <r>     0.6805    67.2056   458.5908 </r>
       <r>     0.7800    57.0099   465.8255 </r>
       <r>     0.8796    75.8575   473.8695 </r>
       <r>     0.9791    79.5676   483.0213 </r>
       <r>     1.0787    73.0752   492.4250 </r>
       <r>     1.1783    79.8863   501.4029 </r>
       <r>     1.2778    72.7864   510.3130 </r>
       <r>     1.3774     6.6943   512.0000 </r>
       <r>     1.4769     0.0000   512.0000 </r>
       <r>     1.5765     0.0000   512.0000 </r>
       <r>     1.6760     0.0000   512.0000 </r>
       <r>     1.7756     0.0000   512.0000 </r>
       <r>     1.8751     0.0000   512.0000 </r>
       <r>     1.9747     0.0000   512.0000 </r>
       <r>     2.0742     0.0000   512.0000 </r>
       <r>     2.1738     0.0000   512.0000 </r>
       <r>     2.2733     0.0000   512.0000 </r>
       <r>     2.3729     0.0000   512.0000 </r>
       <r>     2.4724     0.0000   512.0000 </r>
       <r>     2.5720     0.0000   512.0000 </r>
       <r>     2.6715     0.0000   512.0000 </r>
      </set>
     </set>
    </array>
   </total>
  </dos>
 </calculation>
 <structure name="finalpos" >
  <crystal>
   <varray name="basis" >
    <v>      25.40788091       0.10470839       0.00000000 </v>
    <v>       0.08817507      25.52661222       0.00000000 </v>
    <v>       0.00000000       0.00000000      20.00000000 </v>
   </varray>
   <i name="volume">  12971.35781506 </i>
   <varray name="rec_basis" >
    <v>       0.03935843      -0.00013595       0.00000000 </v>
    <v>      -0.00016145       0.03917536       0.00000000 </v>
    <v>       0.00000000       0.00000000       0.05000000 </v>
   </varray>
  </crystal>
  <varray name="positions" >
   <v>       0.98728573       0.46279657       0.42855547 </v>
   <v>       0.98661002       0.59622836       0.49933529 </v>
   <v>       0.51590356       0.99031647       0.42971050 </v>
   <v>       0.38046264       0.98897348       0.49603353 </v>
   <v>       0.04376893       0.04967082       0.49210170 </v>
   <v>       0.93055590       0.04452787       0.51438461 </v>
   <v>       0.93199841       0.92852644       0.51242277 </v>
   <v>       0.04543061       0.93387502       0.49033835 </v>
   <v>       0.98637667       0.45735430       0.54534230 </v>
   <v>       0.98875897       0.38090311       0.47651279 </v>
   <v>       0.51907750       0.98750083       0.54657448 </v>
   <v>       0.59718775       0.99091281       0.48035459 </v>
   <v>       0.00834927       0.29241267       0.41981258 </v>
   <v>       0.01099582       0.19482901       0.41350329 </v>
   <v>       0.78452139       0.01978970       0.42667469 </v>
   <v>       0.68638290       0.01574046       0.42944885 </v>
   <v>       0.02301719       0.79971683       0.38201967 </v>
   <v>       0.02544734       0.70325012       0.36524326 </v>
   <v>       0.27482324       0.02965993       0.35969192 </v>
   <v>       0.17760009       0.02610205       0.37321839 </v>
   <v>       0.98845656       0.44328877       0.38407079 </v>
   <v>       0.53634068       0.99236832       0.38589859 </v>
   <v>       0.95102890       0.28274759       0.62219987 </v>
   <v>       0.95290816       0.18547048       0.61540293 </v>
   <v>       0.08841748       0.17029871       0.50374421 </v>
   <v>       0.16402629       0.09713163       0.48750354 </v>
   <v>       0.01576300       0.02120894       0.49325472 </v>
   <v>       0.96002820       0.95696163       0.51202977 </v>
   <v>       0.87752918       0.16567447       0.52480294 </v>
   <v>       0.80610187       0.08903315       0.53194813 </v>
   <v>       0.79156616       0.94975284       0.62237231 </v>
   <v>       0.69371559       0.94694796       0.62601513 </v>
   <v>       0.81163858       0.88113063       0.51119454 </v>
   <v>       0.88746605       0.80827463       0.49480501 </v>
   <v>       0.16965018       0.88929352       0.47039287 </v>
   <v>       0.09798995       0.81264892       0.47802451 </v>
   <v>       0.96448659       0.77725577       0.58197589 </v>
   <v>       0.96748003       0.68053179       0.56534072 </v>
   <v>       0.19748625       0.96151013       0.57052110 </v>
   <v>       0.29496002       0.96628367       0.55764228 </v>
   <v>       0.01400279       0.61617105       0.40352589 </v>
   <v>       0.60897931       0.96404613       0.57769879 </v>
   <v>       0.96541862       0.36755232       0.57497875 </v>
   <v>       0.36183176       0.01741396       0.40017875 </v>
   <v>       0.02107898       0.46348204       0.66824811 </v>
   <v>       0.98448216       0.50494405       0.72327961 </v>
   <v>       0.95136471       0.46197643       0.66734272 </v>
   <v>       0.06972745       0.54506816       0.62599372 </v>
   <v>       0.03315573       0.60168509       0.60128206 </v>
   <v>       0.03261235       0.58069976       0.68638635 </v>
   <v>       0.89862006       0.53938679       0.62479350 </v>
   <v>       0.93223300       0.58002961       0.68276436 </v>
   <v>       0.93051309       0.59716513       0.59615578 </v>
   <v>       0.50972747       0.01920594       0.67069506 </v>
   <v>       0.46748704       0.98136632       0.72267564 </v>
   <v>       0.51236560       0.94988259       0.66691476 </v>
   <v>       0.42809797       0.06874146       0.62757283 </v>
   <v>       0.37233004       0.03310898       0.59916875 </v>
   <v>       0.39137185       0.03036340       0.68498479 </v>
   <v>       0.43613267       0.89851650       0.61944042 </v>
   <v>       0.39392583       0.93054209       0.67770692 </v>
   <v>       0.37817778       0.93117964       0.59064283 </v>
   <v>       0.98960546       0.53951483       0.37042675 </v>
   <v>       0.44000405       0.99472535       0.36922379 </v>
   <v>       0.20337163       0.01304990       0.41364363 </v>
   <v>       0.25779323       0.01506091       0.40618364 </v>
   <v>       0.01097810       0.77355965       0.42224756 </v>
   <v>       0.01228831       0.71956899       0.41293293 </v>
   <v>       0.70981032       0.00174005       0.47157691 </v>
   <v>       0.76430307       0.00392013       0.47023865 </v>
   <v>       0.99804305       0.21437243       0.45920194 </v>
   <v>       0.99660486       0.26860894       0.46246568 </v>
   <v>       0.98738139       0.54260599       0.49202036 </v>
   <v>       0.98833893       0.51763639       0.42572568 </v>
   <v>       0.43447582       0.98985667       0.49052143 </v>
   <v>       0.46087383       0.99202151       0.42514195 </v>
   <v>       0.08319662       0.12843495       0.49783676 </v>
   <v>       0.12185640       0.09109648       0.48959270 </v>
   <v>       0.09709288       0.04087012       0.48615353 </v>
   <v>       0.03341463       0.10232669       0.49946597 </v>
   <v>       0.98357969       0.12544958       0.50973866 </v>
   <v>       0.93578406       0.09789955       0.51616946 </v>
   <v>       0.87759105       0.03571959       0.52017541 </v>
   <v>       0.84840793       0.08491103       0.52615612 </v>
   <v>       0.88466840       0.12372373       0.52315704 </v>
   <v>       0.85306185       0.98629177       0.52112031 </v>
   <v>       0.87861022       0.93732877       0.51660811 </v>
   <v>       0.94238185       0.87598024       0.50306513 </v>
   <v>       0.89255427       0.84998742       0.50236775 </v>
   <v>       0.85382479       0.88722946       0.51074469 </v>
   <v>       0.99217085       0.85292674       0.49245127 </v>
   <v>       0.04008031       0.88053605       0.48782361 </v>
   <v>       0.09832911       0.94258376       0.48339051 </v>
   <v>       0.12739770       0.89337051       0.47679200 </v>
   <v>       0.09110310       0.85462388       0.48011798 </v>
   <v>       0.12275614       0.99202679       0.48099437 </v>
   <v>       0.18099116       0.99364866       0.47279265 </v>
   <v>       0.29150552       0.99841459       0.45795168 </v>
   <v>       0.26896723       0.97895012       0.51728929 </v>
   <v>       0.21468207       0.97638468       0.52434065 </v>
   <v>       0.99360380       0.79516526       0.48311552 </v>
   <v>       0.99665634       0.68531160       0.46425982 </v>
   <v>       0.97919929       0.70696177       0.52527562 </v>
   <v>       0.97752828       0.76087436       0.53431971 </v>
   <v>       0.79455145       0.98495396       0.52430093 </v>
   <v>       0.76845910       0.96418927       0.58016118 </v>
   <v>       0.71373356       0.96261091       0.58209500 </v>
   <v>       0.68362851       0.98099188       0.52772070 </v>
   <v>       0.98202584       0.18353294       0.51399658 </v>
   <v>       0.96486972       0.20896411       0.57255299 </v>
   <v>       0.97950802       0.29404949       0.52128579 </v>
   <v>       0.96388630       0.26336901       0.57626097 </v>
   <v>       0.99967563       0.62896247       0.45270606 </v>
   <v>       0.62668528       0.97798615       0.53068625 </v>
   <v>       0.97738637       0.35067121       0.52650887 </v>
   <v>       0.34828815       0.00232612       0.44855938 </v>
   <v>       0.98593283       0.51046444       0.54954424 </v>
   <v>       0.98706719       0.43459219       0.48628018 </v>
   <v>       0.98456485       0.53251353       0.62119106 </v>
   <v>       0.98544243       0.48781790       0.67282958 </v>
   <v>       0.03302830       0.56731533       0.63408651 </v>
   <v>       0.93323772       0.56445731       0.63146903 </v>
   <v>       0.46561054       0.98710477       0.54898398 </v>
   <v>       0.54308042       0.98904498       0.48828576 </v>
   <v>       0.44198378       0.98411718       0.61974974 </v>
   <v>       0.48576245       0.98364080       0.67292463 </v>
   <v>       0.40605952       0.03208274       0.63327883 </v>
   <v>       0.41040557       0.93286360       0.62692695 </v>
  </varray>
 </structure>
</modeling>
