<?xml version="1.0" encoding="ISO-8859-1"?>
<modeling>
 <generator>
  <i name="program" type="string">vasp </i>
  <i name="version" type="string">5.4.4.18Apr17-6-g9f103f2a35  </i>
  <i name="subversion" type="string">(build Jun 07 2020 16:50:00) complex            parallel </i>
  <i name="platform" type="string">LinuxIFC </i>
  <i name="date" type="string">2023 02 27 </i>
  <i name="time" type="string">17:35:21 </i>
 </generator>
 <incar>
  <i type="string" name="SYSTEM">Simulation for cell shape cell volume r</i>
  <i type="int" name="ISTART">     1</i>
  <i type="string" name="PREC">high</i>
  <i type="string" name="ALGO">48</i>
  <i type="int" name="ICHARG">    11</i>
  <i type="int" name="NELM">   200</i>
  <i type="int" name="IBRION">    -1</i>
  <i name="EDIFF">      0.00001000</i>
  <i name="EDIFFG">     -0.01000000</i>
  <i type="int" name="NSW">     0</i>
  <i type="int" name="ISIF">     2</i>
  <i name="ENCUT">    500.00000000</i>
  <i name="POTIM">      0.30000000</i>
  <i type="string" name="LREAL">A</i>
  <i type="int" name="ISMEAR">     0</i>
  <i name="SIGMA">      0.01000000</i>
  <i type="int" name="NWRITE">     0</i>
  <i type="logical" name="LWAVE"> F  </i>
  <i type="logical" name="LCHARG"> F  </i>
  <v type="int" name="KPOINT_BSE">    -1     0     0     0</v>
  <i type="int" name="NELM">   200</i>
  <i type="string" name="GGA">PE</i>
 </incar>
 <structure name="primitive_cell" >
  <crystal>
   <varray name="basis" >
    <v>      29.14669064       0.01010178       0.00000000 </v>
    <v>     -14.56443790      25.13172308       0.00000000 </v>
    <v>       0.00000000       0.00000000      20.00000000 </v>
   </varray>
   <i name="volume">  14653.07369063 </i>
   <varray name="rec_basis" >
    <v>       0.03430232       0.01987902       0.00000000 </v>
    <v>      -0.00001379       0.03978236       0.00000000 </v>
    <v>       0.00000000       0.00000000       0.05000000 </v>
   </varray>
  </crystal>
  <varray name="positions" >
   <v>       0.36254502      -0.42789757       0.49253314 </v>
   <v>       0.38521674      -0.38803776       0.49893766 </v>
   <v>       0.35914396      -0.36022561       0.49878443 </v>
   <v>       0.44250463      -0.36301751       0.49442243 </v>
   <v>       0.40755356      -0.45144119      -0.42432259 </v>
   <v>       0.30546409      -0.38978605       0.49876683 </v>
   <v>       0.45993189      -0.40395530       0.49521442 </v>
   <v>       0.43794405      -0.44687615      -0.45987733 </v>
   <v>       0.45720651      -0.33843756       0.44885722 </v>
   <v>       0.46035614      -0.33521189      -0.46322598 </v>
   <v>       0.38844830      -0.30694438       0.49843788 </v>
   <v>       0.49921458      -0.39892497       0.45111589 </v>
   <v>       0.28168485      -0.36041476       0.49861717 </v>
   <v>       0.45504289      -0.48384167      -0.46119281 </v>
   <v>      -0.48351341      -0.36555451       0.41603888 </v>
   <v>       0.35906198      -0.28262879       0.49820260 </v>
   <v>       0.20474394      -0.46142489      -0.46152178 </v>
   <v>       0.20473394      -0.45970003       0.45043047 </v>
   <v>       0.43714077       0.48216606      -0.42723499 </v>
   <v>       0.30597587      -0.30655501       0.49842118 </v>
   <v>       0.22787434      -0.38654405       0.49827246 </v>
   <v>       0.19513037      -0.44408404       0.49529609 </v>
   <v>      -0.48256750      -0.43554583       0.45006914 </v>
   <v>       0.49413073      -0.47975491       0.49424459 </v>
   <v>       0.38682345      -0.22863660       0.49733882 </v>
   <v>       0.42660273      -0.21143829       0.49159240 </v>
   <v>       0.21083753      -0.36377290       0.49255509 </v>
   <v>      -0.44329540      -0.42827535       0.40470772 </v>
   <v>      -0.48987387       0.47919625       0.49507941 </v>
   <v>       0.13699950      -0.46097395       0.49563103 </v>
   <v>      -0.41991344      -0.39052146       0.38814968 </v>
   <v>       0.11853544       0.48403133       0.41429123 </v>
   <v>      -0.49643424       0.46580134       0.38822272 </v>
   <v>      -0.48074230       0.48118949      -0.39758768 </v>
   <v>      -0.42299967      -0.44739307       0.41501604 </v>
   <v>       0.36207037      -0.19599995       0.49406569 </v>
   <v>       0.10271699      -0.49899145       0.45008760 </v>
   <v>      -0.48686559       0.45448782       0.43599175 </v>
   <v>       0.14231646      -0.40996370      -0.42189249 </v>
   <v>       0.33701666      -0.20572959       0.44905711 </v>
   <v>      -0.47890248       0.46240880      -0.44398937 </v>
   <v>       0.33494701      -0.20582785      -0.46294125 </v>
   <v>       0.11640981      -0.43937710      -0.45852338 </v>
   <v>       0.44941855      -0.14274100      -0.42371494 </v>
   <v>       0.40319042      -0.13757562       0.49458214 </v>
   <v>       0.44557477      -0.11678011      -0.45992230 </v>
   <v>      -0.47308104       0.41492305       0.43792091 </v>
   <v>      -0.46537533       0.42270392      -0.44226691 </v>
   <v>       0.04816020       0.48369302       0.44848592 </v>
   <v>       0.06266073      -0.45557869      -0.46032190 </v>
   <v>       0.02986914       0.42212508       0.38410669 </v>
   <v>      -0.46206521       0.39850308       0.49870292 </v>
   <v>      -0.47123147       0.39611656       0.39148066 </v>
   <v>      -0.45693896       0.41036694      -0.39440422 </v>
   <v>       0.02762389      -0.49340854       0.49368354 </v>
   <v>       0.39904718      -0.10317538       0.44963565 </v>
   <v>       0.01612319       0.44571709       0.40160085 </v>
   <v>       0.36610942      -0.11914357       0.41409236 </v>
   <v>       0.04687347      -0.43796092      -0.42559102 </v>
   <v>       0.48291293      -0.06272904      -0.46151787 </v>
   <v>      -0.48352067      -0.04677599      -0.42708422 </v>
   <v>      -0.02338230       0.42570157       0.41122588 </v>
   <v>       0.43606283      -0.04831791       0.44826568 </v>
   <v>      -0.44488888       0.35746667      -0.49947147 </v>
   <v>       0.47972295      -0.02757401       0.49306220 </v>
   <v>      -0.02913657       0.49125224       0.49425599 </v>
   <v>      -0.46149340       0.33151422      -0.45533487 </v>
   <v>      -0.45982252       0.33130815       0.45637582 </v>
   <v>      -0.36562491       0.42417132      -0.49878118 </v>
   <v>      -0.03721804       0.47981123      -0.39873168 </v>
   <v>      -0.03499742      -0.49973591       0.38771996 </v>
   <v>      -0.38722998       0.38393350      -0.49754340 </v>
   <v>      -0.05732665       0.47913904      -0.44506574 </v>
   <v>       0.42968396      -0.01621699       0.40193996 </v>
   <v>      -0.05621524       0.48975575       0.43526098 </v>
   <v>       0.39224021      -0.03025196       0.38489015 </v>
   <v>      -0.47887697       0.02944918       0.49373025 </v>
   <v>      -0.46487002       0.03569790       0.38700210 </v>
   <v>      -0.48136999       0.03716512      -0.39905563 </v>
   <v>       0.44907557       0.02338617       0.41180767 </v>
   <v>      -0.45369915       0.05683546       0.43464843 </v>
   <v>      -0.46225319       0.05751321      -0.44547150 </v>
   <v>      -0.35958459       0.35772757      -0.49816729 </v>
   <v>      -0.11037089       0.46584975      -0.44352119 </v>
   <v>      -0.10939837       0.47617972       0.43700938 </v>
   <v>      -0.38736188       0.30436059      -0.49846673 </v>
   <v>      -0.30604317       0.38884292      -0.49853968 </v>
   <v>      -0.13147924       0.45642978      -0.39585600 </v>
   <v>      -0.13728837       0.46392352       0.49750796 </v>
   <v>      -0.12957476       0.47541437       0.39063727 </v>
   <v>      -0.41387329       0.11016763       0.43644312 </v>
   <v>      -0.42228303       0.11072234      -0.44389162 </v>
   <v>      -0.39471823       0.13056632       0.39001941 </v>
   <v>      -0.39763412       0.13792155       0.49706837 </v>
   <v>      -0.41010650       0.13172126      -0.39612664 </v>
   <v>      -0.35638799       0.28176991      -0.49932991 </v>
   <v>      -0.20620806       0.46226489       0.45511119 </v>
   <v>      -0.28062843       0.36105520      -0.49935660 </v>
   <v>      -0.20487368       0.46293142      -0.45657221 </v>
   <v>      -0.20833138       0.36725961       0.49825766 </v>
   <v>      -0.42266765       0.20920980       0.49999400 </v>
   <v>      -0.19539954       0.44675880       0.49901186 </v>
   <v>      -0.30321201       0.30733315      -0.49976237 </v>
   <v>      -0.38255737       0.22777667      -0.49999190 </v>
   <v>      -0.22681280       0.38889150      -0.49999853 </v>
   <v>      -0.35643014       0.19620937       0.49866893 </v>
   <v>      -0.33071586       0.20556546      -0.45703291 </v>
   <v>      -0.33027537       0.20713967       0.45463737 </v>
  </varray>
 </structure>
 <varray name="primitive_index" >
  <v type="int" >        1 </v>
  <v type="int" >       49 </v>
  <v type="int" >       62 </v>
  <v type="int" >      108 </v>
  <v type="int" >       41 </v>
  <v type="int" >       47 </v>
  <v type="int" >      103 </v>
  <v type="int" >      105 </v>
  <v type="int" >       45 </v>
  <v type="int" >       44 </v>
  <v type="int" >       46 </v>
  <v type="int" >       83 </v>
  <v type="int" >       63 </v>
  <v type="int" >      104 </v>
  <v type="int" >       23 </v>
  <v type="int" >       61 </v>
  <v type="int" >       38 </v>
  <v type="int" >       39 </v>
  <v type="int" >       40 </v>
  <v type="int" >       48 </v>
  <v type="int" >       50 </v>
  <v type="int" >      102 </v>
  <v type="int" >       84 </v>
  <v type="int" >       85 </v>
  <v type="int" >       51 </v>
  <v type="int" >        3 </v>
  <v type="int" >        2 </v>
  <v type="int" >       60 </v>
  <v type="int" >       86 </v>
  <v type="int" >       97 </v>
  <v type="int" >       24 </v>
  <v type="int" >       16 </v>
  <v type="int" >       21 </v>
  <v type="int" >       43 </v>
  <v type="int" >       25 </v>
  <v type="int" >       96 </v>
  <v type="int" >       75 </v>
  <v type="int" >       87 </v>
  <v type="int" >       35 </v>
  <v type="int" >       33 </v>
  <v type="int" >      107 </v>
  <v type="int" >       32 </v>
  <v type="int" >       99 </v>
  <v type="int" >       29 </v>
  <v type="int" >       91 </v>
  <v type="int" >       93 </v>
  <v type="int" >       88 </v>
  <v type="int" >      106 </v>
  <v type="int" >       76 </v>
  <v type="int" >       98 </v>
  <v type="int" >       17 </v>
  <v type="int" >       89 </v>
  <v type="int" >       22 </v>
  <v type="int" >       42 </v>
  <v type="int" >       77 </v>
  <v type="int" >       67 </v>
  <v type="int" >       59 </v>
  <v type="int" >        9 </v>
  <v type="int" >       34 </v>
  <v type="int" >       92 </v>
  <v type="int" >       28 </v>
  <v type="int" >       18 </v>
  <v type="int" >       68 </v>
  <v type="int" >       90 </v>
  <v type="int" >       69 </v>
  <v type="int" >       78 </v>
  <v type="int" >       26 </v>
  <v type="int" >       27 </v>
  <v type="int" >        4 </v>
  <v type="int" >       37 </v>
  <v type="int" >       14 </v>
  <v type="int" >       55 </v>
  <v type="int" >      101 </v>
  <v type="int" >       58 </v>
  <v type="int" >       79 </v>
  <v type="int" >       10 </v>
  <v type="int" >       70 </v>
  <v type="int" >        7 </v>
  <v type="int" >       31 </v>
  <v type="int" >       11 </v>
  <v type="int" >       71 </v>
  <v type="int" >       95 </v>
  <v type="int" >       65 </v>
  <v type="int" >      100 </v>
  <v type="int" >       80 </v>
  <v type="int" >       52 </v>
  <v type="int" >       53 </v>
  <v type="int" >       36 </v>
  <v type="int" >       81 </v>
  <v type="int" >       15 </v>
  <v type="int" >       72 </v>
  <v type="int" >       94 </v>
  <v type="int" >        8 </v>
  <v type="int" >       73 </v>
  <v type="int" >       30 </v>
  <v type="int" >       64 </v>
  <v type="int" >       20 </v>
  <v type="int" >       66 </v>
  <v type="int" >       19 </v>
  <v type="int" >        5 </v>
  <v type="int" >        6 </v>
  <v type="int" >       82 </v>
  <v type="int" >       54 </v>
  <v type="int" >       57 </v>
  <v type="int" >       56 </v>
  <v type="int" >       74 </v>
  <v type="int" >       12 </v>
  <v type="int" >       13 </v>
 </varray>
 <kpoints>
  <generation param="listgenerated">
   <i name="divisions" type="int">      20 </i>
   <v>       0.00000000       0.00000000       0.00000000 </v>
   <v>       0.50000000       0.00000000       0.00000000 </v>
   <v>       0.33333333       0.33333333       0.00000000 </v>
   <v>       0.00000000       0.00000000       0.00000000 </v>
  </generation>
  <varray name="kpointlist" >
   <v>       0.00000000       0.00000000       0.00000000 </v>
   <v>       0.02631579       0.00000000       0.00000000 </v>
   <v>       0.05263158       0.00000000       0.00000000 </v>
   <v>       0.07894737       0.00000000       0.00000000 </v>
   <v>       0.10526316       0.00000000       0.00000000 </v>
   <v>       0.13157895       0.00000000       0.00000000 </v>
   <v>       0.15789474       0.00000000       0.00000000 </v>
   <v>       0.18421053       0.00000000       0.00000000 </v>
   <v>       0.21052632       0.00000000       0.00000000 </v>
   <v>       0.23684211       0.00000000       0.00000000 </v>
   <v>       0.26315789       0.00000000       0.00000000 </v>
   <v>       0.28947368       0.00000000       0.00000000 </v>
   <v>       0.31578947       0.00000000       0.00000000 </v>
   <v>       0.34210526       0.00000000       0.00000000 </v>
   <v>       0.36842105       0.00000000       0.00000000 </v>
   <v>       0.39473684       0.00000000       0.00000000 </v>
   <v>       0.42105263       0.00000000       0.00000000 </v>
   <v>       0.44736842       0.00000000       0.00000000 </v>
   <v>       0.47368421       0.00000000       0.00000000 </v>
   <v>       0.50000000       0.00000000       0.00000000 </v>
   <v>       0.50000000       0.00000000       0.00000000 </v>
   <v>       0.49122807       0.01754386       0.00000000 </v>
   <v>       0.48245614       0.03508772       0.00000000 </v>
   <v>       0.47368421       0.05263158       0.00000000 </v>
   <v>       0.46491228       0.07017544       0.00000000 </v>
   <v>       0.45614035       0.08771930       0.00000000 </v>
   <v>       0.44736842       0.10526316       0.00000000 </v>
   <v>       0.43859649       0.12280702       0.00000000 </v>
   <v>       0.42982456       0.14035088       0.00000000 </v>
   <v>       0.42105263       0.15789474       0.00000000 </v>
   <v>       0.41228070       0.17543860       0.00000000 </v>
   <v>       0.40350877       0.19298246       0.00000000 </v>
   <v>       0.39473684       0.21052632       0.00000000 </v>
   <v>       0.38596491       0.22807018       0.00000000 </v>
   <v>       0.37719298       0.24561404       0.00000000 </v>
   <v>       0.36842105       0.26315789       0.00000000 </v>
   <v>       0.35964912       0.28070175       0.00000000 </v>
   <v>       0.35087719       0.29824561       0.00000000 </v>
   <v>       0.34210526       0.31578947       0.00000000 </v>
   <v>       0.33333333       0.33333333       0.00000000 </v>
   <v>       0.33333333       0.33333333       0.00000000 </v>
   <v>       0.31578947       0.31578947       0.00000000 </v>
   <v>       0.29824561       0.29824561       0.00000000 </v>
   <v>       0.28070175       0.28070175       0.00000000 </v>
   <v>       0.26315789       0.26315789       0.00000000 </v>
   <v>       0.24561404       0.24561404       0.00000000 </v>
   <v>       0.22807018       0.22807018       0.00000000 </v>
   <v>       0.21052632       0.21052632       0.00000000 </v>
   <v>       0.19298246       0.19298246       0.00000000 </v>
   <v>       0.17543860       0.17543860       0.00000000 </v>
   <v>       0.15789474       0.15789474       0.00000000 </v>
   <v>       0.14035088       0.14035088       0.00000000 </v>
   <v>       0.12280702       0.12280702       0.00000000 </v>
   <v>       0.10526316       0.10526316       0.00000000 </v>
   <v>       0.08771930       0.08771930       0.00000000 </v>
   <v>       0.07017544       0.07017544       0.00000000 </v>
   <v>       0.05263158       0.05263158       0.00000000 </v>
   <v>       0.03508772       0.03508772       0.00000000 </v>
   <v>       0.01754386       0.01754386       0.00000000 </v>
   <v>       0.00000000       0.00000000       0.00000000 </v>
  </varray>
  <varray name="weights" >
   <v>       0.01666667 </v>
   <v>       0.01666667 </v>
   <v>       0.01666667 </v>
   <v>       0.01666667 </v>
   <v>       0.01666667 </v>
   <v>       0.01666667 </v>
   <v>       0.01666667 </v>
   <v>       0.01666667 </v>
   <v>       0.01666667 </v>
   <v>       0.01666667 </v>
   <v>       0.01666667 </v>
   <v>       0.01666667 </v>
   <v>       0.01666667 </v>
   <v>       0.01666667 </v>
   <v>       0.01666667 </v>
   <v>       0.01666667 </v>
   <v>       0.01666667 </v>
   <v>       0.01666667 </v>
   <v>       0.01666667 </v>
   <v>       0.01666667 </v>
   <v>       0.01666667 </v>
   <v>       0.01666667 </v>
   <v>       0.01666667 </v>
   <v>       0.01666667 </v>
   <v>       0.01666667 </v>
   <v>       0.01666667 </v>
   <v>       0.01666667 </v>
   <v>       0.01666667 </v>
   <v>       0.01666667 </v>
   <v>       0.01666667 </v>
   <v>       0.01666667 </v>
   <v>       0.01666667 </v>
   <v>       0.01666667 </v>
   <v>       0.01666667 </v>
   <v>       0.01666667 </v>
   <v>       0.01666667 </v>
   <v>       0.01666667 </v>
   <v>       0.01666667 </v>
   <v>       0.01666667 </v>
   <v>       0.01666667 </v>
   <v>       0.01666667 </v>
   <v>       0.01666667 </v>
   <v>       0.01666667 </v>
   <v>       0.01666667 </v>
   <v>       0.01666667 </v>
   <v>       0.01666667 </v>
   <v>       0.01666667 </v>
   <v>       0.01666667 </v>
   <v>       0.01666667 </v>
   <v>       0.01666667 </v>
   <v>       0.01666667 </v>
   <v>       0.01666667 </v>
   <v>       0.01666667 </v>
   <v>       0.01666667 </v>
   <v>       0.01666667 </v>
   <v>       0.01666667 </v>
   <v>       0.01666667 </v>
   <v>       0.01666667 </v>
   <v>       0.01666667 </v>
   <v>       0.01666667 </v>
  </varray>
 </kpoints>
 <parameters>
  <separator name="general" >
   <i type="string" name="SYSTEM">Simulation for cell shape cell volume r</i>
   <i type="logical" name="LCOMPAT"> F  </i>
  </separator>
  <separator name="electronic" >
   <i type="string" name="PREC">high</i>
   <i name="ENMAX">    500.00000000</i>
   <i name="ENAUG">    644.87300000</i>
   <i name="EDIFF">      0.00001000</i>
   <i type="int" name="IALGO">    38</i>
   <i type="int" name="IWAVPR">    10</i>
   <i type="int" name="NBANDS">   224</i>
   <i name="NELECT">    312.00000000</i>
   <i type="int" name="TURBO">     0</i>
   <i type="int" name="IRESTART">     0</i>
   <i type="int" name="NREBOOT">     0</i>
   <i type="int" name="NMIN">     0</i>
   <i name="EREF">      0.00000000</i>
   <separator name="electronic smearing" >
    <i type="int" name="ISMEAR">     0</i>
    <i name="SIGMA">      0.01000000</i>
    <i name="KSPACING">      0.50000000</i>
    <i type="logical" name="KGAMMA"> T  </i>
   </separator>
   <separator name="electronic projectors" >
    <i type="logical" name="LREAL"> T  </i>
    <v name="ROPT">     -0.00040000     -0.00040000     -0.00040000</v>
    <i type="int" name="LMAXPAW">  -100</i>
    <i type="int" name="LMAXMIX">     2</i>
    <i type="logical" name="NLSPLINE"> F  </i>
   </separator>
   <separator name="electronic startup" >
    <i type="int" name="ISTART">     1</i>
    <i type="int" name="ICHARG">    11</i>
    <i type="int" name="INIWAV">     1</i>
   </separator>
   <separator name="electronic spin" >
    <i type="int" name="ISPIN">     1</i>
    <i type="logical" name="LNONCOLLINEAR"> F  </i>
    <v name="MAGMOM">      1.00000000      1.00000000      1.00000000      1.00000000      1.00000000      1.00000000      1.00000000      1.00000000      1.00000000      1.00000000      1.00000000      1.00000000      1.00000000      1.00000000      1.00000000      1.00000000      1.00000000      1.00000000      1.00000000      1.00000000
      1.00000000      1.00000000      1.00000000      1.00000000      1.00000000      1.00000000      1.00000000      1.00000000      1.00000000      1.00000000      1.00000000      1.00000000      1.00000000      1.00000000      1.00000000      1.00000000      1.00000000      1.00000000      1.00000000      1.00000000
      1.00000000      1.00000000      1.00000000      1.00000000      1.00000000      1.00000000      1.00000000      1.00000000      1.00000000      1.00000000      1.00000000      1.00000000      1.00000000      1.00000000      1.00000000      1.00000000      1.00000000      1.00000000      1.00000000      1.00000000
      1.00000000      1.00000000      1.00000000      1.00000000      1.00000000      1.00000000      1.00000000      1.00000000      1.00000000      1.00000000      1.00000000      1.00000000      1.00000000      1.00000000      1.00000000      1.00000000      1.00000000      1.00000000      1.00000000      1.00000000
      1.00000000      1.00000000      1.00000000      1.00000000      1.00000000      1.00000000      1.00000000      1.00000000      1.00000000      1.00000000      1.00000000      1.00000000      1.00000000      1.00000000      1.00000000      1.00000000      1.00000000      1.00000000      1.00000000      1.00000000
      1.00000000      1.00000000      1.00000000      1.00000000      1.00000000      1.00000000      1.00000000      1.00000000</v>
    <i name="NUPDOWN">     -1.00000000</i>
    <i type="logical" name="LSORBIT"> F  </i>
    <v name="SAXIS">      0.00000000      0.00000000      1.00000000</v>
    <i type="logical" name="LSPIRAL"> F  </i>
    <v name="QSPIRAL">      0.00000000      0.00000000      0.00000000</v>
    <i type="logical" name="LZEROZ"> F  </i>
   </separator>
   <separator name="electronic exchange-correlation" >
    <i type="logical" name="LASPH"> F  </i>
    <i type="logical" name="LMETAGGA"> F  </i>
   </separator>
   <separator name="electronic convergence" >
    <i type="int" name="NELM">   200</i>
    <i type="int" name="NELMDL">     0</i>
    <i type="int" name="NELMIN">     2</i>
    <i name="ENINI">    500.00000000</i>
    <separator name="electronic convergence detail" >
     <i type="logical" name="LDIAG"> T  </i>
     <i type="logical" name="LSUBROT"> F  </i>
     <i name="WEIMIN">      0.00000000</i>
     <i name="EBREAK">      0.00000001</i>
     <i name="DEPER">      0.30000000</i>
     <i type="int" name="NRMM">     4</i>
     <i name="TIME">      0.40000000</i>
    </separator>
   </separator>
   <separator name="electronic mixer" >
    <i name="AMIX">      0.40000000</i>
    <i name="BMIX">      1.00000000</i>
    <i name="AMIN">      0.10000000</i>
    <i name="AMIX_MAG">      1.60000000</i>
    <i name="BMIX_MAG">      1.00000000</i>
    <separator name="electronic mixer details" >
     <i type="int" name="IMIX">     4</i>
     <i type="logical" name="MIXFIRST"> F  </i>
     <i type="int" name="MAXMIX">   -45</i>
     <i name="WC">    100.00000000</i>
     <i type="int" name="INIMIX">     1</i>
     <i type="int" name="MIXPRE">     1</i>
     <i type="int" name="MREMOVE">     5</i>
    </separator>
   </separator>
   <separator name="electronic dipolcorrection" >
    <i type="logical" name="LDIPOL"> F  </i>
    <i type="logical" name="LMONO"> F  </i>
    <i type="int" name="IDIPOL">     0</i>
    <i name="EPSILON">      1.00000000</i>
    <v name="DIPOL">   -100.00000000   -100.00000000   -100.00000000</v>
    <i name="EFIELD">      0.00000000</i>
   </separator>
  </separator>
  <separator name="grids" >
   <i type="int" name="NGX">   216</i>
   <i type="int" name="NGY">   216</i>
   <i type="int" name="NGZ">   150</i>
   <i type="int" name="NGXF">   324</i>
   <i type="int" name="NGYF">   320</i>
   <i type="int" name="NGZF">   224</i>
   <i type="logical" name="ADDGRID"> F  </i>
  </separator>
  <separator name="ionic" >
   <i type="int" name="NSW">     0</i>
   <i type="int" name="IBRION">    -1</i>
   <i type="int" name="MDALGO">     0</i>
   <i type="int" name="ISIF">     2</i>
   <i name="PSTRESS">      0.00000000</i>
   <i name="EDIFFG">     -0.01000000</i>
   <i type="int" name="NFREE">     0</i>
   <i name="POTIM">      0.30000000</i>
   <i name="SMASS">     -3.00000000</i>
   <i name="SCALEE">      1.00000000</i>
  </separator>
  <separator name="ionic md" >
   <i name="TEBEG">      0.00010000</i>
   <i name="TEEND">      0.00010000</i>
   <i type="int" name="NBLOCK">     1</i>
   <i type="int" name="KBLOCK">     1</i>
   <i type="int" name="NPACO">   256</i>
   <i name="APACO">     16.00000000</i>
  </separator>
  <separator name="symmetry" >
   <i type="int" name="ISYM">     2</i>
   <i name="SYMPREC">      0.00001000</i>
  </separator>
  <separator name="dos" >
   <i type="int" name="LORBIT">     0</i>
   <v name="RWIGS">     -1.00000000     -1.00000000     -1.00000000</v>
   <i type="int" name="NEDOS">   301</i>
   <i name="EMIN">     10.00000000</i>
   <i name="EMAX">    -10.00000000</i>
   <i name="EFERMI">      0.00000000</i>
  </separator>
  <separator name="writing" >
   <i type="int" name="NWRITE">     0</i>
   <i type="logical" name="LWAVE"> F  </i>
   <i type="logical" name="LDOWNSAMPLE"> F  </i>
   <i type="logical" name="LCHARG"> F  </i>
   <i type="logical" name="LPARD"> F  </i>
   <i type="logical" name="LVTOT"> F  </i>
   <i type="logical" name="LVHAR"> F  </i>
   <i type="logical" name="LELF"> F  </i>
   <i type="logical" name="LOPTICS"> F  </i>
   <v name="STM">      0.00000000      0.00000000      0.00000000      0.00000000      0.00000000      0.00000000      0.00000000</v>
  </separator>
  <separator name="performance" >
   <i type="int" name="NPAR">    16</i>
   <i type="int" name="NSIM">     4</i>
   <i type="int" name="NBLK">    -1</i>
   <i type="logical" name="LPLANE"> T  </i>
   <i type="logical" name="LSCALAPACK"> T  </i>
   <i type="logical" name="LSCAAWARE"> F  </i>
   <i type="logical" name="LSCALU"> F  </i>
   <i type="logical" name="LASYNC"> F  </i>
   <i type="logical" name="LORBITALREAL"> F  </i>
  </separator>
  <separator name="miscellaneous" >
   <i type="int" name="IDIOT">     3</i>
   <i type="int" name="ISPECIAL">     0</i>
   <i type="logical" name="LMUSIC"> F  </i>
   <v name="POMASS">      1.00000000     14.00100000     12.01100000</v>
   <v name="DARWINR">      0.00000000      0.00000000      0.00000000</v>
   <v name="DARWINV">      1.00000000      1.00000000      1.00000000</v>
   <i type="logical" name="LCORR"> T  </i>
  </separator>
  <i type="logical" name="GGA_COMPAT"> T  </i>
  <i type="logical" name="LBERRY"> F  </i>
  <i type="int" name="ICORELEVEL">     0</i>
  <i type="logical" name="LDAU"> F  </i>
  <i type="int" name="I_CONSTRAINED_M">     0</i>
  <separator name="electronic exchange-correlation" >
   <i type="string" name="GGA">PE</i>
   <i type="int" name="VOSKOWN">     0</i>
   <i type="logical" name="LHFCALC"> F  </i>
   <i type="string" name="PRECFOCK"></i>
   <i type="logical" name="LSYMGRAD"> F  </i>
   <i type="logical" name="LHFONE"> F  </i>
   <i type="logical" name="LRHFCALC"> F  </i>
   <i type="logical" name="LTHOMAS"> F  </i>
   <i type="logical" name="LMODELHF"> F  </i>
   <i name="ENCUT4O">     -1.00000000</i>
   <i type="int" name="EXXOEP">     0</i>
   <i type="int" name="FOURORBIT">     0</i>
   <i name="AEXX">      0.00000000</i>
   <i name="HFALPHA">      0.00000000</i>
   <i name="MCALPHA">      0.00000000</i>
   <i name="ALDAX">      1.00000000</i>
   <i name="AGGAX">      1.00000000</i>
   <i name="ALDAC">      1.00000000</i>
   <i name="AGGAC">      1.00000000</i>
   <i type="int" name="NKREDX">     1</i>
   <i type="int" name="NKREDY">     1</i>
   <i type="int" name="NKREDZ">     1</i>
   <i type="logical" name="SHIFTRED"> F  </i>
   <i type="logical" name="ODDONLY"> F  </i>
   <i type="logical" name="EVENONLY"> F  </i>
   <i type="int" name="LMAXFOCK">     0</i>
   <i type="int" name="NMAXFOCKAE">     0</i>
   <i type="logical" name="LFOCKAEDFT"> F  </i>
   <i name="HFSCREEN">      0.00000000</i>
   <i name="HFSCREENC">      0.00000000</i>
   <i type="int" name="NBANDSGWLOW">     0</i>
  </separator>
  <separator name="vdW DFT" >
   <i type="logical" name="LUSE_VDW"> F  </i>
   <i name="Zab_VDW">     -0.84910000</i>
   <i name="PARAM1">      0.12340000</i>
   <i name="PARAM2">      1.00000000</i>
   <i name="PARAM3">      0.00000000</i>
  </separator>
  <separator name="model GW" >
   <i type="int" name="MODEL_GW">     0</i>
   <i name="MODEL_EPS0">     81.40596495</i>
   <i name="MODEL_ALPHA">      1.00000000</i>
  </separator>
  <separator name="linear response parameters" >
   <i type="logical" name="LEPSILON"> F  </i>
   <i type="logical" name="LRPA"> F  </i>
   <i type="logical" name="LNABLA"> F  </i>
   <i type="logical" name="LVEL"> F  </i>
   <i type="int" name="KINTER">     0</i>
   <i name="CSHIFT">      0.10000000</i>
   <i name="OMEGAMAX">     -1.00000000</i>
   <i name="DEG_THRESHOLD">      0.00200000</i>
   <i name="RTIME">     -0.10000000</i>
   <i name="WPLASMAI">      0.00000000</i>
   <v name="DFIELD">      0.00000000      0.00000000      0.00000000</v>
   <v name="WPLASMA">      0.00000000      0.00000000      0.00000000      0.00000000      0.00000000      0.00000000      0.00000000      0.00000000      0.00000000</v>
  </separator>
  <separator name="orbital magnetization" >
   <i type="logical" name="NUCIND"> F  </i>
   <v name="MAGPOS">      0.00000000      0.00000000      0.00000000</v>
   <i type="logical" name="LNICSALL"> T  </i>
   <i type="logical" name="ORBITALMAG"> F  </i>
   <i type="logical" name="LMAGBLOCH"> F  </i>
   <i type="logical" name="LCHIMAG"> F  </i>
   <i type="logical" name="LGAUGE"> T  </i>
   <i type="int" name="MAGATOM">     0</i>
   <v name="MAGDIPOL">      0.00000000      0.00000000      0.00000000</v>
   <v name="AVECCONST">      0.00000000      0.00000000      0.00000000</v>
  </separator>
  <separator name="response functions" >
   <i type="logical" name="LADDER"> F  </i>
   <i type="logical" name="LRPAFORCE"> F  </i>
   <i type="logical" name="LFXC"> F  </i>
   <i type="logical" name="LHARTREE"> T  </i>
   <i type="int" name="IBSE">     0</i>
   <v type="int" name="KPOINT">    -1     0     0     0</v>
   <i type="logical" name="LTCTE"> F  </i>
   <i type="logical" name="LTETE"> F  </i>
   <i type="logical" name="LTRIPLET"> F  </i>
   <i type="logical" name="LFXCEPS"> F  </i>
   <i type="logical" name="LFXHEG"> F  </i>
   <i type="int" name="NATURALO">     2</i>
   <i type="logical" name="L2ORDER"> F  </i>
   <i type="logical" name="LMP2LT"> F  </i>
   <i type="logical" name="LUSEW"> F  </i>
   <i name="ENCUTGW">     -2.00000000</i>
   <i name="ENCUTGWSOFT">     -2.00000000</i>
   <i name="ENCUTLF">     -1.00000000</i>
   <i type="int" name="LMAXMP2">    -1</i>
   <i name="SCISSOR">      0.00000000</i>
   <i type="int" name="NOMEGA">     0</i>
   <i type="int" name="NOMEGAR">     0</i>
   <i type="int" name="NBANDSGW">    -1</i>
   <i type="int" name="NBANDSO">    -1</i>
   <i type="int" name="NBANDSV">    -1</i>
   <i type="int" name="NELM">   200</i>
   <i type="int" name="NELMHF">     1</i>
   <i type="int" name="DIM">     3</i>
   <i type="int" name="ANTIRES">     0</i>
   <i name="OMEGAMAX">    -30.00000000</i>
   <i name="OMEGAMIN">    -30.00000000</i>
   <i name="OMEGATL">   -200.00000000</i>
   <i type="int" name="OMEGAGRID">   140</i>
   <i name="CSHIFT">     -0.10000000</i>
   <i type="logical" name="SELFENERGY"> F  </i>
   <i type="logical" name="LSPECTRAL"> F  </i>
   <i type="logical" name="LSPECTRALGW"> F  </i>
   <i type="logical" name="LSINGLES"> F  </i>
   <i type="logical" name="LFERMIGW"> F  </i>
   <i type="logical" name="ODDONLYGW"> F  </i>
   <i type="logical" name="EVENONLYGW"> F  </i>
   <i type="int" name="NKREDLFX">     1</i>
   <i type="int" name="NKREDLFY">     1</i>
   <i type="int" name="NKREDLFZ">     1</i>
   <i type="int" name="MAXMEM">  2800</i>
   <i type="int" name="TELESCOPE">     0</i>
   <i type="int" name="TAUPAR">     1</i>
   <i type="int" name="OMEGAPAR">    -1</i>
   <i name="LAMBDA">      1.00000000</i>
  </separator>
  <separator name="External order field" >
   <i name="OFIELD_KAPPA">      0.00000000</i>
   <v name="OFIELD_K">      0.00000000      0.00000000      0.00000000</v>
   <i name="OFIELD_Q6_NEAR">      0.00000000</i>
   <i name="OFIELD_Q6_FAR">      0.00000000</i>
   <i name="OFIELD_A">      0.00000000</i>
  </separator>
  <separator name="solvation model" >
   <i type="logical" name="LSOL"> F  </i>
  </separator>
 </parameters>
 <atominfo>
  <atoms>     108 </atoms>
  <types>       3 </types>
  <array name="atoms" >
   <dimension dim="1">ion</dimension>
   <field type="string">element</field>
   <field type="int">atomtype</field>
   <set>
    <rc><c>H </c><c>   1</c></rc>
    <rc><c>H </c><c>   1</c></rc>
    <rc><c>H </c><c>   1</c></rc>
    <rc><c>H </c><c>   1</c></rc>
    <rc><c>H </c><c>   1</c></rc>
    <rc><c>H </c><c>   1</c></rc>
    <rc><c>H </c><c>   1</c></rc>
    <rc><c>H </c><c>   1</c></rc>
    <rc><c>H </c><c>   1</c></rc>
    <rc><c>H </c><c>   1</c></rc>
    <rc><c>H </c><c>   1</c></rc>
    <rc><c>H </c><c>   1</c></rc>
    <rc><c>H </c><c>   1</c></rc>
    <rc><c>H </c><c>   1</c></rc>
    <rc><c>H </c><c>   1</c></rc>
    <rc><c>H </c><c>   1</c></rc>
    <rc><c>H </c><c>   1</c></rc>
    <rc><c>H </c><c>   1</c></rc>
    <rc><c>H </c><c>   1</c></rc>
    <rc><c>H </c><c>   1</c></rc>
    <rc><c>H </c><c>   1</c></rc>
    <rc><c>H </c><c>   1</c></rc>
    <rc><c>H </c><c>   1</c></rc>
    <rc><c>H </c><c>   1</c></rc>
    <rc><c>H </c><c>   1</c></rc>
    <rc><c>H </c><c>   1</c></rc>
    <rc><c>H </c><c>   1</c></rc>
    <rc><c>H </c><c>   1</c></rc>
    <rc><c>H </c><c>   1</c></rc>
    <rc><c>H </c><c>   1</c></rc>
    <rc><c>H </c><c>   1</c></rc>
    <rc><c>H </c><c>   1</c></rc>
    <rc><c>H </c><c>   1</c></rc>
    <rc><c>H </c><c>   1</c></rc>
    <rc><c>H </c><c>   1</c></rc>
    <rc><c>H </c><c>   1</c></rc>
    <rc><c>H </c><c>   1</c></rc>
    <rc><c>H </c><c>   1</c></rc>
    <rc><c>H </c><c>   1</c></rc>
    <rc><c>H </c><c>   1</c></rc>
    <rc><c>H </c><c>   1</c></rc>
    <rc><c>H </c><c>   1</c></rc>
    <rc><c>H </c><c>   1</c></rc>
    <rc><c>H </c><c>   1</c></rc>
    <rc><c>H </c><c>   1</c></rc>
    <rc><c>N </c><c>   2</c></rc>
    <rc><c>N </c><c>   2</c></rc>
    <rc><c>N </c><c>   2</c></rc>
    <rc><c>N </c><c>   2</c></rc>
    <rc><c>N </c><c>   2</c></rc>
    <rc><c>N </c><c>   2</c></rc>
    <rc><c>N </c><c>   2</c></rc>
    <rc><c>N </c><c>   2</c></rc>
    <rc><c>N </c><c>   2</c></rc>
    <rc><c>N </c><c>   2</c></rc>
    <rc><c>N </c><c>   2</c></rc>
    <rc><c>N </c><c>   2</c></rc>
    <rc><c>N </c><c>   2</c></rc>
    <rc><c>N </c><c>   2</c></rc>
    <rc><c>N </c><c>   2</c></rc>
    <rc><c>C </c><c>   3</c></rc>
    <rc><c>C </c><c>   3</c></rc>
    <rc><c>C </c><c>   3</c></rc>
    <rc><c>C </c><c>   3</c></rc>
    <rc><c>C </c><c>   3</c></rc>
    <rc><c>C </c><c>   3</c></rc>
    <rc><c>C </c><c>   3</c></rc>
    <rc><c>C </c><c>   3</c></rc>
    <rc><c>C </c><c>   3</c></rc>
    <rc><c>C </c><c>   3</c></rc>
    <rc><c>C </c><c>   3</c></rc>
    <rc><c>C </c><c>   3</c></rc>
    <rc><c>C </c><c>   3</c></rc>
    <rc><c>C </c><c>   3</c></rc>
    <rc><c>C </c><c>   3</c></rc>
    <rc><c>C </c><c>   3</c></rc>
    <rc><c>C </c><c>   3</c></rc>
    <rc><c>C </c><c>   3</c></rc>
    <rc><c>C </c><c>   3</c></rc>
    <rc><c>C </c><c>   3</c></rc>
    <rc><c>C </c><c>   3</c></rc>
    <rc><c>C </c><c>   3</c></rc>
    <rc><c>C </c><c>   3</c></rc>
    <rc><c>C </c><c>   3</c></rc>
    <rc><c>C </c><c>   3</c></rc>
    <rc><c>C </c><c>   3</c></rc>
    <rc><c>C </c><c>   3</c></rc>
    <rc><c>C </c><c>   3</c></rc>
    <rc><c>C </c><c>   3</c></rc>
    <rc><c>C </c><c>   3</c></rc>
    <rc><c>C </c><c>   3</c></rc>
    <rc><c>C </c><c>   3</c></rc>
    <rc><c>C </c><c>   3</c></rc>
    <rc><c>C </c><c>   3</c></rc>
    <rc><c>C </c><c>   3</c></rc>
    <rc><c>C </c><c>   3</c></rc>
    <rc><c>C </c><c>   3</c></rc>
    <rc><c>C </c><c>   3</c></rc>
    <rc><c>C </c><c>   3</c></rc>
    <rc><c>C </c><c>   3</c></rc>
    <rc><c>C </c><c>   3</c></rc>
    <rc><c>C </c><c>   3</c></rc>
    <rc><c>C </c><c>   3</c></rc>
    <rc><c>C </c><c>   3</c></rc>
    <rc><c>C </c><c>   3</c></rc>
    <rc><c>C </c><c>   3</c></rc>
    <rc><c>C </c><c>   3</c></rc>
    <rc><c>C </c><c>   3</c></rc>
   </set>
  </array>
  <array name="atomtypes" >
   <dimension dim="1">type</dimension>
   <field type="int">atomspertype</field>
   <field type="string">element</field>
   <field>mass</field>
   <field>valence</field>
   <field type="string">pseudopotential</field>
   <set>
    <rc><c>  45</c><c>H </c><c>      1.00000000</c><c>      1.00000000</c><c>  PAW_PBE H 15Jun2001                   </c></rc>
    <rc><c>  15</c><c>N </c><c>     14.00100000</c><c>      5.00000000</c><c>  PAW_PBE N 08Apr2002                   </c></rc>
    <rc><c>  48</c><c>C </c><c>     12.01100000</c><c>      4.00000000</c><c>  PAW_PBE C 08Apr2002                   </c></rc>
   </set>
  </array>
 </atominfo>
 <structure name="initialpos" >
  <crystal>
   <varray name="basis" >
    <v>      29.14669064       0.01010178       0.00000000 </v>
    <v>     -14.56443790      25.13172308       0.00000000 </v>
    <v>       0.00000000       0.00000000      20.00000000 </v>
   </varray>
   <i name="volume">  14653.07369063 </i>
   <varray name="rec_basis" >
    <v>       0.03430232       0.01987902       0.00000000 </v>
    <v>      -0.00001379       0.03978236       0.00000000 </v>
    <v>       0.00000000       0.00000000       0.05000000 </v>
   </varray>
  </crystal>
  <varray name="positions" >
   <v>       0.36254502       0.57210243       0.49253314 </v>
   <v>       0.21083753       0.63622710       0.49255509 </v>
   <v>       0.42660273       0.78856171       0.49159240 </v>
   <v>       0.63437509       0.42417132       0.50121882 </v>
   <v>       0.79166862       0.36725961       0.49825766 </v>
   <v>       0.57733235       0.20920980       0.49999400 </v>
   <v>       0.53512998       0.03569790       0.38700210 </v>
   <v>       0.60528177       0.13056632       0.39001941 </v>
   <v>       0.36610942       0.88085643       0.41409236 </v>
   <v>       0.39224021       0.96974804       0.38489015 </v>
   <v>       0.44907557       0.02338617       0.41180767 </v>
   <v>       0.66928414       0.20556546       0.54296709 </v>
   <v>       0.66972463       0.20713967       0.45463737 </v>
   <v>       0.96500258       0.50026409       0.38771996 </v>
   <v>       0.87042524       0.47541437       0.39063727 </v>
   <v>       0.11853544       0.48403133       0.41429123 </v>
   <v>       0.02986914       0.42212508       0.38410669 </v>
   <v>       0.97661770       0.42570157       0.41122588 </v>
   <v>       0.79512632       0.46293142       0.54342779 </v>
   <v>       0.79379194       0.46226489       0.45511119 </v>
   <v>       0.50356576       0.46580134       0.38822272 </v>
   <v>       0.52876853       0.39611656       0.39148066 </v>
   <v>       0.51648659       0.63444549       0.41603888 </v>
   <v>       0.58008656       0.60947854       0.38814968 </v>
   <v>       0.57700033       0.55260693       0.41501604 </v>
   <v>       0.53850660       0.33151422       0.54466513 </v>
   <v>       0.54017748       0.33130815       0.45637582 </v>
   <v>       0.51647933       0.95322401       0.57291578 </v>
   <v>       0.44941855       0.85725900       0.57628506 </v>
   <v>       0.58989350       0.13172126       0.60387336 </v>
   <v>       0.51863001       0.03716512       0.60094437 </v>
   <v>       0.33494701       0.79417215       0.53705875 </v>
   <v>       0.33701666       0.79427041       0.44905711 </v>
   <v>       0.04687347       0.56203908       0.57440898 </v>
   <v>       0.14231646       0.59003630       0.57810751 </v>
   <v>       0.86852076       0.45642978       0.60414400 </v>
   <v>       0.96278196       0.47981123       0.60126832 </v>
   <v>       0.20474394       0.53857511       0.53847822 </v>
   <v>       0.20473394       0.54029997       0.45043047 </v>
   <v>       0.43714077       0.48216606       0.57276501 </v>
   <v>       0.40755356       0.54855881       0.57567741 </v>
   <v>       0.54306104       0.41036694       0.60559578 </v>
   <v>       0.51925770       0.48118949       0.60241232 </v>
   <v>       0.46035614       0.66478811       0.53677402 </v>
   <v>       0.45720651       0.66156244       0.44885722 </v>
   <v>       0.38844830       0.69305562       0.49843788 </v>
   <v>       0.30546409       0.61021395       0.49876683 </v>
   <v>       0.30597587       0.69344499       0.49842118 </v>
   <v>       0.38521674       0.61196224       0.49893766 </v>
   <v>       0.22787434       0.61345595       0.49827246 </v>
   <v>       0.38682345       0.77136340       0.49733882 </v>
   <v>       0.61263812       0.30436059       0.50153327 </v>
   <v>       0.69395683       0.38884292       0.50146032 </v>
   <v>       0.69678799       0.30733315       0.50023763 </v>
   <v>       0.61277002       0.38393350       0.50245660 </v>
   <v>       0.77318720       0.38889150       0.50000147 </v>
   <v>       0.61744263       0.22777667       0.50000810 </v>
   <v>       0.42968396       0.98378301       0.40193996 </v>
   <v>       0.01612319       0.44571709       0.40160085 </v>
   <v>       0.55670460       0.57172465       0.40470772 </v>
   <v>       0.35906198       0.71737121       0.49820260 </v>
   <v>       0.35914396       0.63977439       0.49878443 </v>
   <v>       0.28168485       0.63958524       0.49861717 </v>
   <v>       0.64361201       0.28176991       0.50067009 </v>
   <v>       0.64041541       0.35772757       0.50183271 </v>
   <v>       0.71937157       0.36105520       0.50064340 </v>
   <v>       0.39904718       0.89682462       0.44963565 </v>
   <v>       0.43606283       0.95168209       0.44826568 </v>
   <v>       0.47972295       0.97242599       0.49306220 </v>
   <v>       0.52112303       0.02944918       0.49373025 </v>
   <v>       0.54630085       0.05683546       0.43464843 </v>
   <v>       0.58612671       0.11016763       0.43644312 </v>
   <v>       0.60236588       0.13792155       0.49706837 </v>
   <v>       0.64356986       0.19620937       0.49866893 </v>
   <v>       0.10271699       0.50100855       0.45008760 </v>
   <v>       0.04816020       0.48369302       0.44848592 </v>
   <v>       0.02762389       0.50659146       0.49368354 </v>
   <v>       0.97086343       0.49125224       0.49425599 </v>
   <v>       0.94378476       0.48975575       0.43526098 </v>
   <v>       0.89060163       0.47617972       0.43700938 </v>
   <v>       0.86271163       0.46392352       0.49750796 </v>
   <v>       0.80460046       0.44675880       0.49901186 </v>
   <v>       0.49921458       0.60107503       0.45111589 </v>
   <v>       0.51743250       0.56445417       0.45006914 </v>
   <v>       0.49413073       0.52024509       0.49424459 </v>
   <v>       0.51012613       0.47919625       0.49507941 </v>
   <v>       0.51313441       0.45448782       0.43599175 </v>
   <v>       0.52691896       0.41492305       0.43792091 </v>
   <v>       0.53793479       0.39850308       0.49870292 </v>
   <v>       0.55511112       0.35746667       0.50052853 </v>
   <v>       0.40319042       0.86242438       0.49458214 </v>
   <v>       0.48291293       0.93727096       0.53848213 </v>
   <v>       0.44557477       0.88321989       0.54007770 </v>
   <v>       0.57771697       0.11072234       0.55610838 </v>
   <v>       0.53774681       0.05751321       0.55452850 </v>
   <v>       0.36207037       0.80400005       0.49406569 </v>
   <v>       0.13699950       0.53902605       0.49563103 </v>
   <v>       0.06266073       0.54442131       0.53967810 </v>
   <v>       0.11640981       0.56062290       0.54147662 </v>
   <v>       0.88962911       0.46584975       0.55647881 </v>
   <v>       0.94267335       0.47913904       0.55493426 </v>
   <v>       0.19513037       0.55591596       0.49529609 </v>
   <v>       0.45993189       0.59604470       0.49521442 </v>
   <v>       0.45504289       0.51615833       0.53880719 </v>
   <v>       0.43794405       0.55312385       0.54012267 </v>
   <v>       0.53462467       0.42270392       0.55773309 </v>
   <v>       0.52109752       0.46240880       0.55601063 </v>
   <v>       0.44250463       0.63698249       0.49442243 </v>
  </varray>
 </structure>
 <calculation>
  <scstep>
   <time name="dav">  297.06  300.15</time>
   <time name="total">  297.34  300.44</time>
   <energy>
    <i name="alphaZ">     30.20604025 </i>
    <i name="ewald">  36333.39969059 </i>
    <i name="hartreedc"> -45856.67830681 </i>
    <i name="XCdc">   1092.75865465 </i>
    <i name="pawpsdc">  28616.53280044 </i>
    <i name="pawaedc"> -28672.33648674 </i>
    <i name="eentropy">     -0.00000000 </i>
    <i name="bandstr">  -3861.13737617 </i>
    <i name="atom">  11593.03632669 </i>
    <i name="e_fr_energy">   -724.21865711 </i>
    <i name="e_wo_entrp">   -724.21865711 </i>
    <i name="e_0_energy">   -724.21865711 </i>
   </energy>
  </scstep>
  <scstep>
   <time name="dav">  325.81  329.10</time>
   <time name="total">  325.82  329.11</time>
   <energy>
    <i name="e_fr_energy">   -724.63794153 </i>
    <i name="e_wo_entrp">   -724.63794153 </i>
    <i name="e_0_energy">   -724.63794153 </i>
   </energy>
  </scstep>
  <scstep>
   <time name="dav">  368.75  372.48</time>
   <time name="total">  368.76  372.48</time>
   <energy>
    <i name="e_fr_energy">   -724.64772035 </i>
    <i name="e_wo_entrp">   -724.64772035 </i>
    <i name="e_0_energy">   -724.64772035 </i>
   </energy>
  </scstep>
  <scstep>
   <time name="dav">  326.38  329.59</time>
   <time name="total">  326.39  329.61</time>
   <energy>
    <i name="e_fr_energy">   -724.64792994 </i>
    <i name="e_wo_entrp">   -724.64792994 </i>
    <i name="e_0_energy">   -724.64792994 </i>
   </energy>
  </scstep>
  <scstep>
   <time name="dav">  316.89  320.05</time>
   <time name="total">  316.90  320.06</time>
   <energy>
    <i name="e_fr_energy">   -724.64794055 </i>
    <i name="e_wo_entrp">   -724.64794055 </i>
    <i name="e_0_energy">   -724.64794055 </i>
   </energy>
  </scstep>
  <scstep>
   <time name="dav">  260.47  262.99</time>
   <time name="total">  260.50  263.02</time>
   <energy>
    <i name="alphaZ">     30.20604025 </i>
    <i name="ewald">  36333.39969059 </i>
    <i name="hartreedc"> -45856.67830681 </i>
    <i name="XCdc">   1092.75865465 </i>
    <i name="pawpsdc">  28616.53280044 </i>
    <i name="pawaedc"> -28672.33648674 </i>
    <i name="eentropy">     -0.00000000 </i>
    <i name="bandstr">  -3861.56665999 </i>
    <i name="atom">  11593.03632669 </i>
    <i name="e_fr_energy">   -724.64794092 </i>
    <i name="e_wo_entrp">   -724.64794092 </i>
    <i name="e_0_energy">   -724.64794092 </i>
   </energy>
  </scstep>
  <structure>
   <crystal>
    <varray name="basis" >
     <v>      29.14669064       0.01010178       0.00000000 </v>
     <v>     -14.56443790      25.13172308       0.00000000 </v>
     <v>       0.00000000       0.00000000      20.00000000 </v>
    </varray>
    <i name="volume">  14653.07369063 </i>
    <varray name="rec_basis" >
     <v>       0.03430232       0.01987902       0.00000000 </v>
     <v>      -0.00001379       0.03978236       0.00000000 </v>
     <v>       0.00000000       0.00000000       0.05000000 </v>
    </varray>
   </crystal>
   <varray name="positions" >
    <v>       0.36254502       0.57210243       0.49253314 </v>
    <v>       0.21083753       0.63622710       0.49255509 </v>
    <v>       0.42660273       0.78856171       0.49159240 </v>
    <v>       0.63437509       0.42417132       0.50121882 </v>
    <v>       0.79166862       0.36725961       0.49825766 </v>
    <v>       0.57733235       0.20920980       0.49999400 </v>
    <v>       0.53512998       0.03569790       0.38700210 </v>
    <v>       0.60528177       0.13056632       0.39001941 </v>
    <v>       0.36610942       0.88085643       0.41409236 </v>
    <v>       0.39224021       0.96974804       0.38489015 </v>
    <v>       0.44907557       0.02338617       0.41180767 </v>
    <v>       0.66928414       0.20556546       0.54296709 </v>
    <v>       0.66972463       0.20713967       0.45463737 </v>
    <v>       0.96500258       0.50026409       0.38771996 </v>
    <v>       0.87042524       0.47541437       0.39063727 </v>
    <v>       0.11853544       0.48403133       0.41429123 </v>
    <v>       0.02986914       0.42212508       0.38410669 </v>
    <v>       0.97661770       0.42570157       0.41122588 </v>
    <v>       0.79512632       0.46293142       0.54342779 </v>
    <v>       0.79379194       0.46226489       0.45511119 </v>
    <v>       0.50356576       0.46580134       0.38822272 </v>
    <v>       0.52876853       0.39611656       0.39148066 </v>
    <v>       0.51648659       0.63444549       0.41603888 </v>
    <v>       0.58008656       0.60947854       0.38814968 </v>
    <v>       0.57700033       0.55260693       0.41501604 </v>
    <v>       0.53850660       0.33151422       0.54466513 </v>
    <v>       0.54017748       0.33130815       0.45637582 </v>
    <v>       0.51647933       0.95322401       0.57291578 </v>
    <v>       0.44941855       0.85725900       0.57628506 </v>
    <v>       0.58989350       0.13172126       0.60387336 </v>
    <v>       0.51863001       0.03716512       0.60094437 </v>
    <v>       0.33494701       0.79417215       0.53705875 </v>
    <v>       0.33701666       0.79427041       0.44905711 </v>
    <v>       0.04687347       0.56203908       0.57440898 </v>
    <v>       0.14231646       0.59003630       0.57810751 </v>
    <v>       0.86852076       0.45642978       0.60414400 </v>
    <v>       0.96278196       0.47981123       0.60126832 </v>
    <v>       0.20474394       0.53857511       0.53847822 </v>
    <v>       0.20473394       0.54029997       0.45043047 </v>
    <v>       0.43714077       0.48216606       0.57276501 </v>
    <v>       0.40755356       0.54855881       0.57567741 </v>
    <v>       0.54306104       0.41036694       0.60559578 </v>
    <v>       0.51925770       0.48118949       0.60241232 </v>
    <v>       0.46035614       0.66478811       0.53677402 </v>
    <v>       0.45720651       0.66156244       0.44885722 </v>
    <v>       0.38844830       0.69305562       0.49843788 </v>
    <v>       0.30546409       0.61021395       0.49876683 </v>
    <v>       0.30597587       0.69344499       0.49842118 </v>
    <v>       0.38521674       0.61196224       0.49893766 </v>
    <v>       0.22787434       0.61345595       0.49827246 </v>
    <v>       0.38682345       0.77136340       0.49733882 </v>
    <v>       0.61263812       0.30436059       0.50153327 </v>
    <v>       0.69395683       0.38884292       0.50146032 </v>
    <v>       0.69678799       0.30733315       0.50023763 </v>
    <v>       0.61277002       0.38393350       0.50245660 </v>
    <v>       0.77318720       0.38889150       0.50000147 </v>
    <v>       0.61744263       0.22777667       0.50000810 </v>
    <v>       0.42968396       0.98378301       0.40193996 </v>
    <v>       0.01612319       0.44571709       0.40160085 </v>
    <v>       0.55670460       0.57172465       0.40470772 </v>
    <v>       0.35906198       0.71737121       0.49820260 </v>
    <v>       0.35914396       0.63977439       0.49878443 </v>
    <v>       0.28168485       0.63958524       0.49861717 </v>
    <v>       0.64361201       0.28176991       0.50067009 </v>
    <v>       0.64041541       0.35772757       0.50183271 </v>
    <v>       0.71937157       0.36105520       0.50064340 </v>
    <v>       0.39904718       0.89682462       0.44963565 </v>
    <v>       0.43606283       0.95168209       0.44826568 </v>
    <v>       0.47972295       0.97242599       0.49306220 </v>
    <v>       0.52112303       0.02944918       0.49373025 </v>
    <v>       0.54630085       0.05683546       0.43464843 </v>
    <v>       0.58612671       0.11016763       0.43644312 </v>
    <v>       0.60236588       0.13792155       0.49706837 </v>
    <v>       0.64356986       0.19620937       0.49866893 </v>
    <v>       0.10271699       0.50100855       0.45008760 </v>
    <v>       0.04816020       0.48369302       0.44848592 </v>
    <v>       0.02762389       0.50659146       0.49368354 </v>
    <v>       0.97086343       0.49125224       0.49425599 </v>
    <v>       0.94378476       0.48975575       0.43526098 </v>
    <v>       0.89060163       0.47617972       0.43700938 </v>
    <v>       0.86271163       0.46392352       0.49750796 </v>
    <v>       0.80460046       0.44675880       0.49901186 </v>
    <v>       0.49921458       0.60107503       0.45111589 </v>
    <v>       0.51743250       0.56445417       0.45006914 </v>
    <v>       0.49413073       0.52024509       0.49424459 </v>
    <v>       0.51012613       0.47919625       0.49507941 </v>
    <v>       0.51313441       0.45448782       0.43599175 </v>
    <v>       0.52691896       0.41492305       0.43792091 </v>
    <v>       0.53793479       0.39850308       0.49870292 </v>
    <v>       0.55511112       0.35746667       0.50052853 </v>
    <v>       0.40319042       0.86242438       0.49458214 </v>
    <v>       0.48291293       0.93727096       0.53848213 </v>
    <v>       0.44557477       0.88321989       0.54007770 </v>
    <v>       0.57771697       0.11072234       0.55610838 </v>
    <v>       0.53774681       0.05751321       0.55452850 </v>
    <v>       0.36207037       0.80400005       0.49406569 </v>
    <v>       0.13699950       0.53902605       0.49563103 </v>
    <v>       0.06266073       0.54442131       0.53967810 </v>
    <v>       0.11640981       0.56062290       0.54147662 </v>
    <v>       0.88962911       0.46584975       0.55647881 </v>
    <v>       0.94267335       0.47913904       0.55493426 </v>
    <v>       0.19513037       0.55591596       0.49529609 </v>
    <v>       0.45993189       0.59604470       0.49521442 </v>
    <v>       0.45504289       0.51615833       0.53880719 </v>
    <v>       0.43794405       0.55312385       0.54012267 </v>
    <v>       0.53462467       0.42270392       0.55773309 </v>
    <v>       0.52109752       0.46240880       0.55601063 </v>
    <v>       0.44250463       0.63698249       0.49442243 </v>
   </varray>
  </structure>
  <varray name="forces" >
   <v>       0.00114321      -0.00149153      -0.00017424 </v>
   <v>      -0.00289872       0.00268689      -0.00061865 </v>
   <v>      -0.00004577      -0.00037278       0.00004942 </v>
   <v>       0.00089951       0.00024847       0.00005741 </v>
   <v>       0.00217736      -0.00163617       0.00023335 </v>
   <v>       0.00197159       0.00247441      -0.00028329 </v>
   <v>       0.00101430       0.00060290       0.00166501 </v>
   <v>       0.00017083       0.00062283      -0.00049246 </v>
   <v>      -0.00256580      -0.00321399      -0.00318001 </v>
   <v>      -0.00136636      -0.00263334      -0.00127397 </v>
   <v>      -0.00063499       0.00122413      -0.00167762 </v>
   <v>       0.00181700      -0.00096319       0.00038939 </v>
   <v>       0.00032351      -0.00070986       0.00182002 </v>
   <v>       0.00107106       0.00191097      -0.00018744 </v>
   <v>      -0.00191275       0.00171841       0.00017593 </v>
   <v>      -0.00047261       0.00194335      -0.00131115 </v>
   <v>      -0.00021329       0.00142265      -0.00080254 </v>
   <v>      -0.00260323      -0.00341527      -0.00152720 </v>
   <v>       0.00140662       0.00056711       0.00182733 </v>
   <v>       0.00021097       0.00006125      -0.00114603 </v>
   <v>      -0.00121847       0.00062353      -0.00134011 </v>
   <v>      -0.00038915      -0.00106659       0.00102570 </v>
   <v>       0.00076006       0.00033388      -0.00047612 </v>
   <v>      -0.00088470      -0.00078041      -0.00187361 </v>
   <v>      -0.00143332       0.00068759      -0.00088186 </v>
   <v>      -0.00101678       0.00014601       0.00292872 </v>
   <v>      -0.00146590      -0.00073504       0.00100403 </v>
   <v>       0.00126689      -0.00077986       0.00291342 </v>
   <v>       0.00097604      -0.00169488       0.00031830 </v>
   <v>      -0.00216617      -0.00008442      -0.00107128 </v>
   <v>      -0.00157362       0.00082755      -0.00248230 </v>
   <v>       0.00004775      -0.00058392      -0.00095109 </v>
   <v>       0.00179597      -0.00030813      -0.00268742 </v>
   <v>       0.00180934      -0.00161745       0.00184881 </v>
   <v>      -0.00089754       0.00058338      -0.00131930 </v>
   <v>      -0.00063283      -0.00022162      -0.00049358 </v>
   <v>       0.00117894      -0.00084100       0.00079303 </v>
   <v>       0.00069348      -0.00223519      -0.00130284 </v>
   <v>      -0.00076359       0.00181061      -0.00048854 </v>
   <v>      -0.00118304       0.00239504       0.00033872 </v>
   <v>       0.00023381       0.00177923       0.00070709 </v>
   <v>       0.00065205       0.00239629       0.00190325 </v>
   <v>       0.00019953       0.00166671       0.00176521 </v>
   <v>       0.00133672      -0.00004080      -0.00047089 </v>
   <v>       0.00057408      -0.00087346      -0.00008494 </v>
   <v>      -0.00181873       0.00374583       0.00332794 </v>
   <v>      -0.00301774      -0.00074666      -0.00039733 </v>
   <v>       0.00188434       0.00008946       0.00010987 </v>
   <v>      -0.00041414       0.00250689       0.00182004 </v>
   <v>       0.00215818      -0.00263215       0.00229792 </v>
   <v>       0.00231592       0.00076867      -0.00221576 </v>
   <v>       0.00003414       0.00195893       0.00010300 </v>
   <v>      -0.00061620      -0.00245098       0.00201371 </v>
   <v>      -0.00183821       0.00136886       0.00100012 </v>
   <v>       0.00262633      -0.00332033      -0.00060813 </v>
   <v>      -0.00275392      -0.00006878      -0.00127537 </v>
   <v>      -0.00304303      -0.00200426      -0.00167745 </v>
   <v>      -0.00059896       0.00206289       0.00118120 </v>
   <v>       0.00464670       0.00168656       0.00306216 </v>
   <v>       0.00056550      -0.00023425       0.00023077 </v>
   <v>      -0.00070833      -0.00151898      -0.00018563 </v>
   <v>       0.00306269       0.00025339       0.00207256 </v>
   <v>       0.00271303      -0.00316835      -0.00151066 </v>
   <v>       0.00131508       0.00298360      -0.00188554 </v>
   <v>      -0.00166768       0.00205010      -0.00097679 </v>
   <v>       0.00117233      -0.00045405      -0.00150675 </v>
   <v>       0.00062895       0.00009581      -0.00148988 </v>
   <v>      -0.00223980      -0.00289065      -0.00370997 </v>
   <v>       0.00109185       0.00140566       0.00239621 </v>
   <v>      -0.00281672      -0.00221042       0.00040127 </v>
   <v>       0.00000933      -0.00093179       0.00059477 </v>
   <v>       0.00073154       0.00125946       0.00074069 </v>
   <v>      -0.00226542       0.00084065      -0.00045631 </v>
   <v>       0.00093206       0.00085311       0.00109490 </v>
   <v>       0.00032046       0.00088464      -0.00058503 </v>
   <v>       0.00023715      -0.00070631      -0.00166688 </v>
   <v>      -0.00036373       0.00028115       0.00035562 </v>
   <v>      -0.00030257      -0.00065036      -0.00002007 </v>
   <v>      -0.00254982      -0.00194169       0.00298196 </v>
   <v>       0.00449075       0.00089134       0.00097077 </v>
   <v>       0.00046974       0.00065006      -0.00209134 </v>
   <v>      -0.00103735      -0.00068442       0.00024541 </v>
   <v>       0.00055411      -0.00049567      -0.00184340 </v>
   <v>      -0.00040537       0.00117327       0.00065405 </v>
   <v>       0.00104258       0.00068498      -0.00053246 </v>
   <v>      -0.00073831       0.00115508       0.00033837 </v>
   <v>      -0.00053054       0.00085940      -0.00014143 </v>
   <v>      -0.00015817       0.00062698      -0.00026849 </v>
   <v>       0.00112897       0.00067754       0.00180433 </v>
   <v>       0.00086188       0.00000405       0.00127743 </v>
   <v>      -0.00394093      -0.00104576      -0.00324884 </v>
   <v>      -0.00371774      -0.00189654      -0.00051797 </v>
   <v>       0.00243110       0.00213985       0.00235483 </v>
   <v>      -0.00088502       0.00053405       0.00074780 </v>
   <v>      -0.00068177      -0.00124231      -0.00078047 </v>
   <v>      -0.00105560      -0.00122804      -0.00040814 </v>
   <v>       0.00288930       0.00020408      -0.00049638 </v>
   <v>       0.00293261      -0.00057687      -0.00093324 </v>
   <v>      -0.00047089      -0.00295163       0.00050102 </v>
   <v>       0.00061892      -0.00196667       0.00175122 </v>
   <v>      -0.00006494      -0.00240393      -0.00104701 </v>
   <v>      -0.00098216       0.00210847       0.00040006 </v>
   <v>       0.00093584       0.00031732       0.00025451 </v>
   <v>      -0.00048113      -0.00174689       0.00090380 </v>
   <v>      -0.00041206       0.00164945       0.00079548 </v>
   <v>       0.00028459       0.00277238       0.00039470 </v>
   <v>       0.00136136      -0.00004128       0.00045536 </v>
   <v>      -0.00126234      -0.00176828      -0.00032277 </v>
  </varray>
  <varray name="stress" >
   <v>       0.00270347       0.00056600      -0.00182182 </v>
   <v>       0.00056600       0.00021308       0.00083102 </v>
   <v>      -0.00182182       0.00083103      -0.16412779 </v>
  </varray>
  <energy>
   <i name="e_fr_energy">   -726.59667131 </i>
   <i name="e_wo_entrp">   -726.59667131 </i>
   <i name="e_0_energy">     -0.00000000 </i>
  </energy>
  <time name="totalsc"> 2198.22 2221.05</time>
  <eigenvalues>
   <array>
    <dimension dim="1">band</dimension>
    <dimension dim="2">kpoint</dimension>
    <dimension dim="3">spin</dimension>
    <field>eigene</field>
    <field>occ</field>
    <set>
     <set comment="spin 1">
      <set comment="kpoint 1">
       <r>  -25.0345    1.0000 </r>
       <r>  -24.8870    1.0000 </r>
       <r>  -23.5149    1.0000 </r>
       <r>  -23.5131    1.0000 </r>
       <r>  -23.3769    1.0000 </r>
       <r>  -23.3756    1.0000 </r>
       <r>  -22.8134    1.0000 </r>
       <r>  -22.8094    1.0000 </r>
       <r>  -22.8048    1.0000 </r>
       <r>  -22.1394    1.0000 </r>
       <r>  -21.9785    1.0000 </r>
       <r>  -21.2999    1.0000 </r>
       <r>  -21.2971    1.0000 </r>
       <r>  -21.1451    1.0000 </r>
       <r>  -20.8976    1.0000 </r>
       <r>  -20.8956    1.0000 </r>
       <r>  -20.7567    1.0000 </r>
       <r>  -20.7558    1.0000 </r>
       <r>  -20.5183    1.0000 </r>
       <r>  -20.3928    1.0000 </r>
       <r>  -20.3904    1.0000 </r>
       <r>  -19.2957    1.0000 </r>
       <r>  -19.2931    1.0000 </r>
       <r>  -19.2641    1.0000 </r>
       <r>  -18.3554    1.0000 </r>
       <r>  -18.3520    1.0000 </r>
       <r>  -18.2768    1.0000 </r>
       <r>  -18.2515    1.0000 </r>
       <r>  -18.2479    1.0000 </r>
       <r>  -18.2095    1.0000 </r>
       <r>  -17.7150    1.0000 </r>
       <r>  -17.7107    1.0000 </r>
       <r>  -17.6923    1.0000 </r>
       <r>  -17.2616    1.0000 </r>
       <r>  -17.2568    1.0000 </r>
       <r>  -16.9891    1.0000 </r>
       <r>  -16.4355    1.0000 </r>
       <r>  -16.4306    1.0000 </r>
       <r>  -16.1563    1.0000 </r>
       <r>  -15.2429    1.0000 </r>
       <r>  -15.2422    1.0000 </r>
       <r>  -15.0717    1.0000 </r>
       <r>  -15.0549    1.0000 </r>
       <r>  -15.0526    1.0000 </r>
       <r>  -14.9399    1.0000 </r>
       <r>  -14.9383    1.0000 </r>
       <r>  -14.7376    1.0000 </r>
       <r>  -14.5226    1.0000 </r>
       <r>  -14.4897    1.0000 </r>
       <r>  -14.4884    1.0000 </r>
       <r>  -14.3290    1.0000 </r>
       <r>  -14.3237    1.0000 </r>
       <r>  -14.1541    1.0000 </r>
       <r>  -13.8933    1.0000 </r>
       <r>  -13.8881    1.0000 </r>
       <r>  -13.7889    1.0000 </r>
       <r>  -13.7506    1.0000 </r>
       <r>  -12.8856    1.0000 </r>
       <r>  -12.7913    1.0000 </r>
       <r>  -12.7586    1.0000 </r>
       <r>  -12.7560    1.0000 </r>
       <r>  -12.4967    1.0000 </r>
       <r>  -12.4938    1.0000 </r>
       <r>  -12.4772    1.0000 </r>
       <r>  -12.3406    1.0000 </r>
       <r>  -12.2329    1.0000 </r>
       <r>  -12.2323    1.0000 </r>
       <r>  -11.7166    1.0000 </r>
       <r>  -11.7145    1.0000 </r>
       <r>  -11.6397    1.0000 </r>
       <r>  -11.4198    1.0000 </r>
       <r>  -11.4177    1.0000 </r>
       <r>  -11.4019    1.0000 </r>
       <r>  -11.2468    1.0000 </r>
       <r>  -11.2429    1.0000 </r>
       <r>  -11.1231    1.0000 </r>
       <r>  -11.0417    1.0000 </r>
       <r>  -10.9721    1.0000 </r>
       <r>  -10.9711    1.0000 </r>
       <r>  -10.8152    1.0000 </r>
       <r>  -10.8107    1.0000 </r>
       <r>  -10.7080    1.0000 </r>
       <r>  -10.6166    1.0000 </r>
       <r>  -10.6115    1.0000 </r>
       <r>  -10.6072    1.0000 </r>
       <r>  -10.4888    1.0000 </r>
       <r>  -10.4881    1.0000 </r>
       <r>  -10.3547    1.0000 </r>
       <r>  -10.2684    1.0000 </r>
       <r>  -10.2631    1.0000 </r>
       <r>  -10.2604    1.0000 </r>
       <r>  -10.0840    1.0000 </r>
       <r>  -10.0605    1.0000 </r>
       <r>  -10.0566    1.0000 </r>
       <r>   -9.9876    1.0000 </r>
       <r>   -9.9005    1.0000 </r>
       <r>   -9.8949    1.0000 </r>
       <r>   -9.8673    1.0000 </r>
       <r>   -9.8625    1.0000 </r>
       <r>   -9.8590    1.0000 </r>
       <r>   -9.7013    1.0000 </r>
       <r>   -9.6995    1.0000 </r>
       <r>   -9.5031    1.0000 </r>
       <r>   -9.4485    1.0000 </r>
       <r>   -9.3174    1.0000 </r>
       <r>   -9.3159    1.0000 </r>
       <r>   -9.3084    1.0000 </r>
       <r>   -9.1234    1.0000 </r>
       <r>   -9.1179    1.0000 </r>
       <r>   -8.9186    1.0000 </r>
       <r>   -8.7831    1.0000 </r>
       <r>   -8.7447    1.0000 </r>
       <r>   -8.7412    1.0000 </r>
       <r>   -8.5124    1.0000 </r>
       <r>   -8.4547    1.0000 </r>
       <r>   -8.4501    1.0000 </r>
       <r>   -8.2833    1.0000 </r>
       <r>   -8.2357    1.0000 </r>
       <r>   -8.2308    1.0000 </r>
       <r>   -8.1922    1.0000 </r>
       <r>   -8.0584    1.0000 </r>
       <r>   -7.9851    1.0000 </r>
       <r>   -7.9824    1.0000 </r>
       <r>   -7.8747    1.0000 </r>
       <r>   -7.8184    1.0000 </r>
       <r>   -7.8134    1.0000 </r>
       <r>   -7.7485    1.0000 </r>
       <r>   -7.7426    1.0000 </r>
       <r>   -7.7252    1.0000 </r>
       <r>   -7.6740    1.0000 </r>
       <r>   -7.6719    1.0000 </r>
       <r>   -7.2478    1.0000 </r>
       <r>   -7.2015    1.0000 </r>
       <r>   -7.1948    1.0000 </r>
       <r>   -6.4256    1.0000 </r>
       <r>   -6.4218    1.0000 </r>
       <r>   -6.4107    1.0000 </r>
       <r>   -6.2100    1.0000 </r>
       <r>   -6.2029    1.0000 </r>
       <r>   -6.1986    1.0000 </r>
       <r>   -5.6108    1.0000 </r>
       <r>   -5.6052    1.0000 </r>
       <r>   -5.5705    1.0000 </r>
       <r>   -5.4186    1.0000 </r>
       <r>   -5.4174    1.0000 </r>
       <r>   -5.2928    1.0000 </r>
       <r>   -5.2914    1.0000 </r>
       <r>   -5.1982    1.0000 </r>
       <r>   -5.0426    1.0000 </r>
       <r>   -5.0023    1.0000 </r>
       <r>   -5.0008    1.0000 </r>
       <r>   -4.8611    1.0000 </r>
       <r>   -4.8583    1.0000 </r>
       <r>   -4.6684    1.0000 </r>
       <r>   -4.6596    1.0000 </r>
       <r>   -4.6570    1.0000 </r>
       <r>   -1.4966    0.0000 </r>
       <r>   -1.4912    0.0000 </r>
       <r>   -1.4838    0.0000 </r>
       <r>   -1.1574    0.0000 </r>
       <r>   -1.1539    0.0000 </r>
       <r>   -1.1181    0.0000 </r>
       <r>   -0.7320    0.0000 </r>
       <r>   -0.7302    0.0000 </r>
       <r>   -0.7263    0.0000 </r>
       <r>   -0.4345    0.0000 </r>
       <r>   -0.3944    0.0000 </r>
       <r>   -0.3880    0.0000 </r>
       <r>   -0.3646    0.0000 </r>
       <r>   -0.3541    0.0000 </r>
       <r>   -0.3510    0.0000 </r>
       <r>   -0.1643    0.0000 </r>
       <r>   -0.1627    0.0000 </r>
       <r>   -0.1421    0.0000 </r>
       <r>   -0.0728    0.0000 </r>
       <r>   -0.0666    0.0000 </r>
       <r>   -0.0050    0.0000 </r>
       <r>   -0.0030    0.0000 </r>
       <r>    0.0302    0.0000 </r>
       <r>    0.1766    0.0000 </r>
       <r>    0.1797    0.0000 </r>
       <r>    0.2060    0.0000 </r>
       <r>    0.2775    0.0000 </r>
       <r>    0.2790    0.0000 </r>
       <r>    0.3263    0.0000 </r>
       <r>    0.3503    0.0000 </r>
       <r>    0.3521    0.0000 </r>
       <r>    0.3938    0.0000 </r>
       <r>    0.4695    0.0000 </r>
       <r>    0.5299    0.0000 </r>
       <r>    0.5956    0.0000 </r>
       <r>    0.5976    0.0000 </r>
       <r>    0.6326    0.0000 </r>
       <r>    0.6361    0.0000 </r>
       <r>    0.6785    0.0000 </r>
       <r>    0.6913    0.0000 </r>
       <r>    0.6952    0.0000 </r>
       <r>    0.7533    0.0000 </r>
       <r>    0.7594    0.0000 </r>
       <r>    0.7610    0.0000 </r>
       <r>    0.7962    0.0000 </r>
       <r>    0.8203    0.0000 </r>
       <r>    0.8527    0.0000 </r>
       <r>    0.8529    0.0000 </r>
       <r>    0.8633    0.0000 </r>
       <r>    0.8687    0.0000 </r>
       <r>    0.8983    0.0000 </r>
       <r>    0.8990    0.0000 </r>
       <r>    0.9196    0.0000 </r>
       <r>    0.9422    0.0000 </r>
       <r>    0.9455    0.0000 </r>
       <r>    0.9616    0.0000 </r>
       <r>    1.0168    0.0000 </r>
       <r>    1.0184    0.0000 </r>
       <r>    1.0915    0.0000 </r>
       <r>    1.0920    0.0000 </r>
       <r>    1.1404    0.0000 </r>
       <r>    1.1678    0.0000 </r>
       <r>    1.1725    0.0000 </r>
       <r>    1.2167    0.0000 </r>
       <r>    1.2297    0.0000 </r>
       <r>    1.2321    0.0000 </r>
       <r>    1.2387    0.0000 </r>
       <r>    1.2680    0.0000 </r>
      </set>
      <set comment="kpoint 2">
       <r>  -25.0345    1.0000 </r>
       <r>  -24.8870    1.0000 </r>
       <r>  -23.5149    1.0000 </r>
       <r>  -23.5131    1.0000 </r>
       <r>  -23.3769    1.0000 </r>
       <r>  -23.3756    1.0000 </r>
       <r>  -22.8134    1.0000 </r>
       <r>  -22.8094    1.0000 </r>
       <r>  -22.8048    1.0000 </r>
       <r>  -22.1394    1.0000 </r>
       <r>  -21.9785    1.0000 </r>
       <r>  -21.2999    1.0000 </r>
       <r>  -21.2971    1.0000 </r>
       <r>  -21.1451    1.0000 </r>
       <r>  -20.8975    1.0000 </r>
       <r>  -20.8955    1.0000 </r>
       <r>  -20.7567    1.0000 </r>
       <r>  -20.7559    1.0000 </r>
       <r>  -20.5182    1.0000 </r>
       <r>  -20.3929    1.0000 </r>
       <r>  -20.3905    1.0000 </r>
       <r>  -19.2957    1.0000 </r>
       <r>  -19.2931    1.0000 </r>
       <r>  -19.2641    1.0000 </r>
       <r>  -18.3553    1.0000 </r>
       <r>  -18.3520    1.0000 </r>
       <r>  -18.2769    1.0000 </r>
       <r>  -18.2515    1.0000 </r>
       <r>  -18.2479    1.0000 </r>
       <r>  -18.2096    1.0000 </r>
       <r>  -17.7150    1.0000 </r>
       <r>  -17.7107    1.0000 </r>
       <r>  -17.6923    1.0000 </r>
       <r>  -17.2614    1.0000 </r>
       <r>  -17.2567    1.0000 </r>
       <r>  -16.9896    1.0000 </r>
       <r>  -16.4351    1.0000 </r>
       <r>  -16.4305    1.0000 </r>
       <r>  -16.1567    1.0000 </r>
       <r>  -15.2429    1.0000 </r>
       <r>  -15.2419    1.0000 </r>
       <r>  -15.0718    1.0000 </r>
       <r>  -15.0550    1.0000 </r>
       <r>  -15.0527    1.0000 </r>
       <r>  -14.9404    1.0000 </r>
       <r>  -14.9384    1.0000 </r>
       <r>  -14.7368    1.0000 </r>
       <r>  -14.5226    1.0000 </r>
       <r>  -14.4898    1.0000 </r>
       <r>  -14.4884    1.0000 </r>
       <r>  -14.3297    1.0000 </r>
       <r>  -14.3237    1.0000 </r>
       <r>  -14.1534    1.0000 </r>
       <r>  -13.8936    1.0000 </r>
       <r>  -13.8882    1.0000 </r>
       <r>  -13.7888    1.0000 </r>
       <r>  -13.7506    1.0000 </r>
       <r>  -12.8857    1.0000 </r>
       <r>  -12.7917    1.0000 </r>
       <r>  -12.7583    1.0000 </r>
       <r>  -12.7558    1.0000 </r>
       <r>  -12.4968    1.0000 </r>
       <r>  -12.4941    1.0000 </r>
       <r>  -12.4775    1.0000 </r>
       <r>  -12.3410    1.0000 </r>
       <r>  -12.2324    1.0000 </r>
       <r>  -12.2315    1.0000 </r>
       <r>  -11.7184    1.0000 </r>
       <r>  -11.7145    1.0000 </r>
       <r>  -11.6385    1.0000 </r>
       <r>  -11.4209    1.0000 </r>
       <r>  -11.4180    1.0000 </r>
       <r>  -11.4004    1.0000 </r>
       <r>  -11.2468    1.0000 </r>
       <r>  -11.2430    1.0000 </r>
       <r>  -11.1229    1.0000 </r>
       <r>  -11.0416    1.0000 </r>
       <r>  -10.9722    1.0000 </r>
       <r>  -10.9711    1.0000 </r>
       <r>  -10.8154    1.0000 </r>
       <r>  -10.8106    1.0000 </r>
       <r>  -10.7077    1.0000 </r>
       <r>  -10.6166    1.0000 </r>
       <r>  -10.6115    1.0000 </r>
       <r>  -10.6071    1.0000 </r>
       <r>  -10.4888    1.0000 </r>
       <r>  -10.4881    1.0000 </r>
       <r>  -10.3550    1.0000 </r>
       <r>  -10.2706    1.0000 </r>
       <r>  -10.2617    1.0000 </r>
       <r>  -10.2595    1.0000 </r>
       <r>  -10.0841    1.0000 </r>
       <r>  -10.0604    1.0000 </r>
       <r>  -10.0566    1.0000 </r>
       <r>   -9.9878    1.0000 </r>
       <r>   -9.9003    1.0000 </r>
       <r>   -9.8949    1.0000 </r>
       <r>   -9.8672    1.0000 </r>
       <r>   -9.8625    1.0000 </r>
       <r>   -9.8590    1.0000 </r>
       <r>   -9.7013    1.0000 </r>
       <r>   -9.6996    1.0000 </r>
       <r>   -9.5030    1.0000 </r>
       <r>   -9.4483    1.0000 </r>
       <r>   -9.3177    1.0000 </r>
       <r>   -9.3159    1.0000 </r>
       <r>   -9.3086    1.0000 </r>
       <r>   -9.1230    1.0000 </r>
       <r>   -9.1178    1.0000 </r>
       <r>   -8.9188    1.0000 </r>
       <r>   -8.7831    1.0000 </r>
       <r>   -8.7447    1.0000 </r>
       <r>   -8.7412    1.0000 </r>
       <r>   -8.5123    1.0000 </r>
       <r>   -8.4548    1.0000 </r>
       <r>   -8.4501    1.0000 </r>
       <r>   -8.2832    1.0000 </r>
       <r>   -8.2358    1.0000 </r>
       <r>   -8.2308    1.0000 </r>
       <r>   -8.1921    1.0000 </r>
       <r>   -8.0586    1.0000 </r>
       <r>   -7.9849    1.0000 </r>
       <r>   -7.9824    1.0000 </r>
       <r>   -7.8747    1.0000 </r>
       <r>   -7.8184    1.0000 </r>
       <r>   -7.8134    1.0000 </r>
       <r>   -7.7486    1.0000 </r>
       <r>   -7.7426    1.0000 </r>
       <r>   -7.7250    1.0000 </r>
       <r>   -7.6741    1.0000 </r>
       <r>   -7.6719    1.0000 </r>
       <r>   -7.2478    1.0000 </r>
       <r>   -7.2015    1.0000 </r>
       <r>   -7.1948    1.0000 </r>
       <r>   -6.4258    1.0000 </r>
       <r>   -6.4217    1.0000 </r>
       <r>   -6.4106    1.0000 </r>
       <r>   -6.2100    1.0000 </r>
       <r>   -6.2029    1.0000 </r>
       <r>   -6.1986    1.0000 </r>
       <r>   -5.6108    1.0000 </r>
       <r>   -5.6052    1.0000 </r>
       <r>   -5.5705    1.0000 </r>
       <r>   -5.4186    1.0000 </r>
       <r>   -5.4174    1.0000 </r>
       <r>   -5.2928    1.0000 </r>
       <r>   -5.2914    1.0000 </r>
       <r>   -5.1982    1.0000 </r>
       <r>   -5.0426    1.0000 </r>
       <r>   -5.0023    1.0000 </r>
       <r>   -5.0008    1.0000 </r>
       <r>   -4.8611    1.0000 </r>
       <r>   -4.8583    1.0000 </r>
       <r>   -4.6684    1.0000 </r>
       <r>   -4.6596    1.0000 </r>
       <r>   -4.6570    1.0000 </r>
       <r>   -1.4966    0.0000 </r>
       <r>   -1.4912    0.0000 </r>
       <r>   -1.4838    0.0000 </r>
       <r>   -1.1574    0.0000 </r>
       <r>   -1.1539    0.0000 </r>
       <r>   -1.1181    0.0000 </r>
       <r>   -0.7320    0.0000 </r>
       <r>   -0.7302    0.0000 </r>
       <r>   -0.7263    0.0000 </r>
       <r>   -0.4344    0.0000 </r>
       <r>   -0.3944    0.0000 </r>
       <r>   -0.3880    0.0000 </r>
       <r>   -0.3647    0.0000 </r>
       <r>   -0.3542    0.0000 </r>
       <r>   -0.3510    0.0000 </r>
       <r>   -0.1643    0.0000 </r>
       <r>   -0.1627    0.0000 </r>
       <r>   -0.1419    0.0000 </r>
       <r>   -0.0728    0.0000 </r>
       <r>   -0.0667    0.0000 </r>
       <r>   -0.0049    0.0000 </r>
       <r>   -0.0030    0.0000 </r>
       <r>    0.0303    0.0000 </r>
       <r>    0.1764    0.0000 </r>
       <r>    0.1790    0.0000 </r>
       <r>    0.2061    0.0000 </r>
       <r>    0.2775    0.0000 </r>
       <r>    0.2786    0.0000 </r>
       <r>    0.3253    0.0000 </r>
       <r>    0.3507    0.0000 </r>
       <r>    0.3538    0.0000 </r>
       <r>    0.3941    0.0000 </r>
       <r>    0.4698    0.0000 </r>
       <r>    0.5301    0.0000 </r>
       <r>    0.5956    0.0000 </r>
       <r>    0.5976    0.0000 </r>
       <r>    0.6323    0.0000 </r>
       <r>    0.6359    0.0000 </r>
       <r>    0.6773    0.0000 </r>
       <r>    0.6912    0.0000 </r>
       <r>    0.6956    0.0000 </r>
       <r>    0.7520    0.0000 </r>
       <r>    0.7583    0.0000 </r>
       <r>    0.7627    0.0000 </r>
       <r>    0.7966    0.0000 </r>
       <r>    0.8208    0.0000 </r>
       <r>    0.8512    0.0000 </r>
       <r>    0.8530    0.0000 </r>
       <r>    0.8627    0.0000 </r>
       <r>    0.8697    0.0000 </r>
       <r>    0.8980    0.0000 </r>
       <r>    0.8994    0.0000 </r>
       <r>    0.9197    0.0000 </r>
       <r>    0.9427    0.0000 </r>
       <r>    0.9460    0.0000 </r>
       <r>    0.9626    0.0000 </r>
       <r>    1.0173    0.0000 </r>
       <r>    1.0182    0.0000 </r>
       <r>    1.0917    0.0000 </r>
       <r>    1.0922    0.0000 </r>
       <r>    1.1398    0.0000 </r>
       <r>    1.1669    0.0000 </r>
       <r>    1.1720    0.0000 </r>
       <r>    1.2144    0.0000 </r>
       <r>    1.2282    0.0000 </r>
       <r>    1.2314    0.0000 </r>
       <r>    1.2404    0.0000 </r>
       <r>    1.2676    0.0000 </r>
      </set>
      <set comment="kpoint 3">
       <r>  -25.0345    1.0000 </r>
       <r>  -24.8870    1.0000 </r>
       <r>  -23.5149    1.0000 </r>
       <r>  -23.5131    1.0000 </r>
       <r>  -23.3769    1.0000 </r>
       <r>  -23.3756    1.0000 </r>
       <r>  -22.8134    1.0000 </r>
       <r>  -22.8094    1.0000 </r>
       <r>  -22.8048    1.0000 </r>
       <r>  -22.1394    1.0000 </r>
       <r>  -21.9785    1.0000 </r>
       <r>  -21.2999    1.0000 </r>
       <r>  -21.2971    1.0000 </r>
       <r>  -21.1452    1.0000 </r>
       <r>  -20.8973    1.0000 </r>
       <r>  -20.8953    1.0000 </r>
       <r>  -20.7571    1.0000 </r>
       <r>  -20.7562    1.0000 </r>
       <r>  -20.5178    1.0000 </r>
       <r>  -20.3930    1.0000 </r>
       <r>  -20.3905    1.0000 </r>
       <r>  -19.2956    1.0000 </r>
       <r>  -19.2930    1.0000 </r>
       <r>  -19.2643    1.0000 </r>
       <r>  -18.3549    1.0000 </r>
       <r>  -18.3519    1.0000 </r>
       <r>  -18.2770    1.0000 </r>
       <r>  -18.2515    1.0000 </r>
       <r>  -18.2479    1.0000 </r>
       <r>  -18.2101    1.0000 </r>
       <r>  -17.7150    1.0000 </r>
       <r>  -17.7107    1.0000 </r>
       <r>  -17.6923    1.0000 </r>
       <r>  -17.2606    1.0000 </r>
       <r>  -17.2564    1.0000 </r>
       <r>  -16.9912    1.0000 </r>
       <r>  -16.4339    1.0000 </r>
       <r>  -16.4301    1.0000 </r>
       <r>  -16.1578    1.0000 </r>
[...]
       <r>   -21.8157     0.0000    22.0000 </r>
       <r>   -21.7192     0.0000    22.0000 </r>
       <r>   -21.6227     0.0000    22.0000 </r>
       <r>   -21.5262     0.0000    22.0000 </r>
       <r>   -21.4298     0.0000    22.0000 </r>
       <r>   -21.3333     0.0000    22.0000 </r>
       <r>   -21.2368    41.4605    26.0000 </r>
       <r>   -21.1403    18.2412    27.7599 </r>
       <r>   -21.0439     0.0000    28.0000 </r>
       <r>   -20.9474     0.0000    28.0000 </r>
       <r>   -20.8509    41.3920    31.9934 </r>
       <r>   -20.7544    31.8034    35.0683 </r>
       <r>   -20.6579     0.0000    36.0000 </r>
       <r>   -20.5615     0.0000    36.0000 </r>
       <r>   -20.4650    20.7303    38.0000 </r>
       <r>   -20.3685    41.4440    41.9984 </r>
       <r>   -20.2720     0.0000    42.0000 </r>
       <r>   -20.1756     0.0000    42.0000 </r>
       <r>   -20.0791     0.0000    42.0000 </r>
       <r>   -19.9826     0.0000    42.0000 </r>
       <r>   -19.8861     0.0000    42.0000 </r>
       <r>   -19.7897     0.0000    42.0000 </r>
       <r>   -19.6932     0.0000    42.0000 </r>
       <r>   -19.5967     0.0000    42.0000 </r>
       <r>   -19.5002     0.0000    42.0000 </r>
       <r>   -19.4037     0.0000    42.0000 </r>
       <r>   -19.3073     0.9118    42.0880 </r>
       <r>   -19.2108    33.4682    48.0000 </r>
       <r>   -19.1143     0.0000    48.0000 </r>
       <r>   -19.0178     0.0000    48.0000 </r>
       <r>   -18.9214     0.0000    48.0000 </r>
       <r>   -18.8249     0.0000    48.0000 </r>
       <r>   -18.7284     0.0000    48.0000 </r>
       <r>   -18.6319     0.0000    48.0000 </r>
       <r>   -18.5354     0.0000    48.0000 </r>
       <r>   -18.4390     0.0000    48.0000 </r>
       <r>   -18.3425    25.4311    50.4535 </r>
       <r>   -18.2460    57.2719    56.5602 </r>
       <r>   -18.1495     9.6667    60.0000 </r>
       <r>   -18.0531     0.0000    60.0000 </r>
       <r>   -17.9566     0.0000    60.0000 </r>
       <r>   -17.8601     0.0000    60.0000 </r>
       <r>   -17.7636     0.0000    60.0000 </r>
       <r>   -17.6672    62.1892    65.9998 </r>
       <r>   -17.5707     0.0000    66.0000 </r>
       <r>   -17.4742     0.0000    66.0000 </r>
       <r>   -17.3777     0.0000    66.0000 </r>
       <r>   -17.2812     0.0154    66.0015 </r>
       <r>   -17.1848    32.6384    69.1504 </r>
       <r>   -17.0883    12.4912    70.7723 </r>
       <r>   -16.9918     8.0337    71.8418 </r>
       <r>   -16.8953     0.0000    72.0000 </r>
       <r>   -16.7989     0.0000    72.0000 </r>
       <r>   -16.7024     0.0000    72.0000 </r>
       <r>   -16.6059     0.0000    72.0000 </r>
       <r>   -16.5094     0.0000    72.0000 </r>
       <r>   -16.4129    25.2176    74.4329 </r>
       <r>   -16.3165    10.3650    75.5672 </r>
       <r>   -16.2200    13.3159    77.0849 </r>
       <r>   -16.1235     7.9446    78.0000 </r>
       <r>   -16.0270     0.0000    78.0000 </r>
       <r>   -15.9306     0.0000    78.0000 </r>
       <r>   -15.8341     0.0000    78.0000 </r>
       <r>   -15.7376     0.0000    78.0000 </r>
       <r>   -15.6411     0.0000    78.0000 </r>
       <r>   -15.5447     0.0000    78.0000 </r>
       <r>   -15.4482     0.0000    78.0000 </r>
       <r>   -15.3517     0.0000    78.0000 </r>
       <r>   -15.2552     0.3974    78.0383 </r>
       <r>   -15.1587    21.4950    81.4462 </r>
       <r>   -15.0623    44.3292    86.1440 </r>
       <r>   -14.9658    15.7442    89.5190 </r>
       <r>   -14.8693    23.8345    92.0000 </r>
       <r>   -14.7728     0.0000    92.0000 </r>
       <r>   -14.6764     6.8609    92.6619 </r>
       <r>   -14.5799    12.3844    93.9617 </r>
       <r>   -14.4834    55.8727    99.6909 </r>
       <r>   -14.3869    12.9955   101.2538 </r>
       <r>   -14.2904    26.6031   104.0000 </r>
       <r>   -14.1940     0.0000   104.0000 </r>
       <r>   -14.0975     7.2268   104.6972 </r>
       <r>   -14.0010    11.7467   106.0000 </r>
       <r>   -13.9045    17.0140   107.6415 </r>
       <r>   -13.8081     0.0089   110.0009 </r>
       <r>   -13.7116    41.4516   114.0000 </r>
       <r>   -13.6151     0.0000   114.0000 </r>
       <r>   -13.5186     0.0000   114.0000 </r>
       <r>   -13.4222     0.0000   114.0000 </r>
       <r>   -13.3257     0.0000   114.0000 </r>
       <r>   -13.2292     0.0000   114.0000 </r>
       <r>   -13.1327     0.0000   114.0000 </r>
       <r>   -13.0362     0.0000   114.0000 </r>
       <r>   -12.9398     0.0000   114.0000 </r>
       <r>   -12.8433    20.7304   116.0000 </r>
       <r>   -12.7468    43.0650   120.1548 </r>
       <r>   -12.6503    14.6523   121.9804 </r>
       <r>   -12.5539    12.8492   123.2397 </r>
       <r>   -12.4574    48.0175   127.9994 </r>
       <r>   -12.3609     7.1026   128.6852 </r>
       <r>   -12.2644     2.4095   130.0000 </r>
       <r>   -12.1679    26.2963   132.5370 </r>
       <r>   -12.0715     3.7235   132.9926 </r>
       <r>   -11.9750     9.4181   134.0094 </r>
       <r>   -11.8785     9.1930   135.0537 </r>
       <r>   -11.7820     3.7869   135.4987 </r>
       <r>   -11.6856    25.2197   137.9999 </r>
       <r>   -11.5891     7.0746   138.6825 </r>
       <r>   -11.4926    10.7044   140.0007 </r>
       <r>   -11.3961    43.0355   144.1527 </r>
       <r>   -11.2996    16.9172   145.9990 </r>
       <r>   -11.2032    41.4583   150.0000 </r>
       <r>   -11.1067     6.3878   150.6163 </r>
       <r>   -11.0102    30.7232   153.9993 </r>
       <r>   -10.9137    38.9885   158.0000 </r>
       <r>   -10.8173    19.8412   159.9142 </r>
       <r>   -10.7208     0.0786   162.0076 </r>
       <r>   -10.6243    23.5434   164.5387 </r>
       <r>   -10.5278    20.6886   170.0001 </r>
       <r>   -10.4314    41.4594   174.0000 </r>
       <r>   -10.3349    20.9150   176.0178 </r>
       <r>   -10.2384    37.8185   180.4174 </r>
       <r>   -10.1419    13.4704   182.0000 </r>
       <r>   -10.0454    50.3990   186.8624 </r>
       <r>    -9.9490    20.7295   190.0000 </r>
       <r>    -9.8525    94.0967   199.0782 </r>
       <r>    -9.7560     0.0000   200.0000 </r>
       <r>    -9.6595    41.4605   204.0000 </r>
       <r>    -9.5631     0.0000   204.0000 </r>
       <r>    -9.4666    20.7379   206.0007 </r>
       <r>    -9.3701    25.2229   208.4347 </r>
       <r>    -9.2736    50.4286   214.0000 </r>
       <r>    -9.1771     0.0000   214.0000 </r>
       <r>    -9.0807    28.5357   216.7531 </r>
       <r>    -8.9842    10.7064   218.0002 </r>
       <r>    -8.8877    20.7285   220.0000 </r>
       <r>    -8.7912     2.3730   220.2289 </r>
       <r>    -8.6948    41.4605   226.0000 </r>
       <r>    -8.5983     0.0000   226.0000 </r>
       <r>    -8.5018     6.5529   226.6322 </r>
       <r>    -8.4053    46.6266   232.0000 </r>
       <r>    -8.3089     0.0006   232.0001 </r>
       <r>    -8.2124    62.1400   237.9952 </r>
       <r>    -8.1159    20.7317   240.0007 </r>
       <r>    -8.0194    20.7228   242.0000 </r>
       <r>    -7.9229    41.4605   246.0000 </r>
       <r>    -7.8265    23.9274   248.3085 </r>
       <r>    -7.7300    41.9123   256.0436 </r>
       <r>    -7.6335    54.5743   262.0000 </r>
       <r>    -7.5370     0.0000   262.0000 </r>
       <r>    -7.4406     0.0000   262.0000 </r>
       <r>    -7.3441     0.0000   262.0000 </r>
       <r>    -7.2476    10.8709   263.0488 </r>
       <r>    -7.1511    41.4605   268.0000 </r>
       <r>    -7.0546     0.0000   268.0000 </r>
       <r>    -6.9582     0.0000   268.0000 </r>
       <r>    -6.8617     0.0000   268.0000 </r>
       <r>    -6.7652     0.0000   268.0000 </r>
       <r>    -6.6687     0.0000   268.0000 </r>
       <r>    -6.5723     0.0000   268.0000 </r>
       <r>    -6.4758     0.0000   268.0000 </r>
       <r>    -6.3793    62.1860   273.9995 </r>
       <r>    -6.2828     0.0000   274.0000 </r>
       <r>    -6.1864    61.1316   279.8978 </r>
       <r>    -6.0899     0.0000   280.0000 </r>
       <r>    -5.9934     0.0000   280.0000 </r>
       <r>    -5.8969     0.0000   280.0000 </r>
       <r>    -5.8004     0.0000   280.0000 </r>
       <r>    -5.7040     0.0000   280.0000 </r>
       <r>    -5.6075    22.8444   282.2040 </r>
       <r>    -5.5110    20.7303   286.0000 </r>
       <r>    -5.4145    27.4369   288.6470 </r>
       <r>    -5.3181     0.0063   290.0006 </r>
       <r>    -5.2216    41.4637   294.0009 </r>
       <r>    -5.1251    20.7208   296.0000 </r>
       <r>    -5.0286    20.2293   297.9517 </r>
       <r>    -4.9321    41.4576   302.0000 </r>
       <r>    -4.8357    41.4430   305.9983 </r>
       <r>    -4.7392     0.0000   306.0000 </r>
       <r>    -4.6427    61.6379   311.9467 </r>
       <r>    -4.5462     0.0000   312.0000 </r>
       <r>    -4.4498     0.0000   312.0000 </r>
       <r>    -4.3533     0.0000   312.0000 </r>
       <r>    -4.2568     0.0000   312.0000 </r>
       <r>    -4.1603     0.0000   312.0000 </r>
       <r>    -4.0639     0.0000   312.0000 </r>
       <r>    -3.9674     0.0000   312.0000 </r>
       <r>    -3.8709     0.0000   312.0000 </r>
       <r>    -3.7744     0.0000   312.0000 </r>
       <r>    -3.6779     0.0000   312.0000 </r>
       <r>    -3.5815     0.0000   312.0000 </r>
       <r>    -3.4850     0.0000   312.0000 </r>
       <r>    -3.3885     0.0000   312.0000 </r>
       <r>    -3.2920     0.0000   312.0000 </r>
       <r>    -3.1956     0.0000   312.0000 </r>
       <r>    -3.0991     0.0000   312.0000 </r>
       <r>    -3.0026     0.0000   312.0000 </r>
       <r>    -2.9061     0.0000   312.0000 </r>
       <r>    -2.8096     0.0000   312.0000 </r>
       <r>    -2.7132     0.0000   312.0000 </r>
       <r>    -2.6167     0.0000   312.0000 </r>
       <r>    -2.5202     0.0000   312.0000 </r>
       <r>    -2.4237     0.0000   312.0000 </r>
       <r>    -2.3273     0.0000   312.0000 </r>
       <r>    -2.2308     0.0000   312.0000 </r>
       <r>    -2.1343     0.0000   312.0000 </r>
       <r>    -2.0378     0.0000   312.0000 </r>
       <r>    -1.9414     0.0000   312.0000 </r>
       <r>    -1.8449     0.0000   312.0000 </r>
       <r>    -1.7484     0.0000   312.0000 </r>
       <r>    -1.6519     0.0000   312.0000 </r>
       <r>    -1.5554     0.0000   312.0000 </r>
       <r>    -1.4590    62.1864   317.9996 </r>
       <r>    -1.3625     0.0000   318.0000 </r>
       <r>    -1.2660     0.0000   318.0000 </r>
       <r>    -1.1695     1.1729   318.1132 </r>
       <r>    -1.0731    20.7303   324.0000 </r>
       <r>    -0.9766     0.0000   324.0000 </r>
       <r>    -0.8801     0.0000   324.0000 </r>
       <r>    -0.7836     0.0000   324.0000 </r>
       <r>    -0.6871    62.1908   330.0000 </r>
       <r>    -0.5907     0.0000   330.0000 </r>
       <r>    -0.4942     0.0000   330.0000 </r>
       <r>    -0.3977    27.7161   332.6740 </r>
       <r>    -0.3012    62.1624   342.0000 </r>
       <r>    -0.2048     0.0000   342.0000 </r>
       <r>    -0.1083    53.5970   347.1709 </r>
       <r>    -0.0118    52.8538   353.0992 </r>
       <r>     0.0847    35.3434   358.0442 </r>
       <r>     0.1811    32.3693   361.8580 </r>
       <r>     0.2776    47.3378   367.0690 </r>
       <r>     0.3741    25.1881   370.4301 </r>
       <r>     0.4706    49.5426   375.7809 </r>
       <r>     0.5671    34.0403   380.6521 </r>
       <r>     0.6635    83.7740   389.9846 </r>
       <r>     0.7600    70.8624   398.4719 </r>
       <r>     0.8565    76.0979   407.8769 </r>
       <r>     0.9530    84.6711   417.8049 </r>
       <r>     1.0494    82.9852   427.3409 </r>
       <r>     1.1459    89.9681   436.8489 </r>
       <r>     1.2424    73.4835   445.6278 </r>
       <r>     1.3389    11.7315   448.0000 </r>
       <r>     1.4354     0.0000   448.0000 </r>
       <r>     1.5318     0.0000   448.0000 </r>
       <r>     1.6283     0.0000   448.0000 </r>
       <r>     1.7248     0.0000   448.0000 </r>
       <r>     1.8213     0.0000   448.0000 </r>
       <r>     1.9177     0.0000   448.0000 </r>
       <r>     2.0142     0.0000   448.0000 </r>
       <r>     2.1107     0.0000   448.0000 </r>
       <r>     2.2072     0.0000   448.0000 </r>
       <r>     2.3036     0.0000   448.0000 </r>
       <r>     2.4001     0.0000   448.0000 </r>
       <r>     2.4966     0.0000   448.0000 </r>
       <r>     2.5931     0.0000   448.0000 </r>
      </set>
     </set>
    </array>
   </total>
  </dos>
 </calculation>
 <structure name="finalpos" >
  <crystal>
   <varray name="basis" >
    <v>      29.14669064       0.01010178       0.00000000 </v>
    <v>     -14.56443790      25.13172308       0.00000000 </v>
    <v>       0.00000000       0.00000000      20.00000000 </v>
   </varray>
   <i name="volume">  14653.07369063 </i>
   <varray name="rec_basis" >
    <v>       0.03430232       0.01987902       0.00000000 </v>
    <v>      -0.00001379       0.03978236       0.00000000 </v>
    <v>       0.00000000       0.00000000       0.05000000 </v>
   </varray>
  </crystal>
  <varray name="positions" >
   <v>       0.36254502       0.57210243       0.49253314 </v>
   <v>       0.21083753       0.63622710       0.49255509 </v>
   <v>       0.42660273       0.78856171       0.49159240 </v>
   <v>       0.63437509       0.42417132       0.50121882 </v>
   <v>       0.79166862       0.36725961       0.49825766 </v>
   <v>       0.57733235       0.20920980       0.49999400 </v>
   <v>       0.53512998       0.03569790       0.38700210 </v>
   <v>       0.60528177       0.13056632       0.39001941 </v>
   <v>       0.36610942       0.88085643       0.41409236 </v>
   <v>       0.39224021       0.96974804       0.38489015 </v>
   <v>       0.44907557       0.02338617       0.41180767 </v>
   <v>       0.66928414       0.20556546       0.54296709 </v>
   <v>       0.66972463       0.20713967       0.45463737 </v>
   <v>       0.96500258       0.50026409       0.38771996 </v>
   <v>       0.87042524       0.47541437       0.39063727 </v>
   <v>       0.11853544       0.48403133       0.41429123 </v>
   <v>       0.02986914       0.42212508       0.38410669 </v>
   <v>       0.97661770       0.42570157       0.41122588 </v>
   <v>       0.79512632       0.46293142       0.54342779 </v>
   <v>       0.79379194       0.46226489       0.45511119 </v>
   <v>       0.50356576       0.46580134       0.38822272 </v>
   <v>       0.52876853       0.39611656       0.39148066 </v>
   <v>       0.51648659       0.63444549       0.41603888 </v>
   <v>       0.58008656       0.60947854       0.38814968 </v>
   <v>       0.57700033       0.55260693       0.41501604 </v>
   <v>       0.53850660       0.33151422       0.54466513 </v>
   <v>       0.54017748       0.33130815       0.45637582 </v>
   <v>       0.51647933       0.95322401       0.57291578 </v>
   <v>       0.44941855       0.85725900       0.57628506 </v>
   <v>       0.58989350       0.13172126       0.60387336 </v>
   <v>       0.51863001       0.03716512       0.60094437 </v>
   <v>       0.33494701       0.79417215       0.53705875 </v>
   <v>       0.33701666       0.79427041       0.44905711 </v>
   <v>       0.04687347       0.56203908       0.57440898 </v>
   <v>       0.14231646       0.59003630       0.57810751 </v>
   <v>       0.86852076       0.45642978       0.60414400 </v>
   <v>       0.96278196       0.47981123       0.60126832 </v>
   <v>       0.20474394       0.53857511       0.53847822 </v>
   <v>       0.20473394       0.54029997       0.45043047 </v>
   <v>       0.43714077       0.48216606       0.57276501 </v>
   <v>       0.40755356       0.54855881       0.57567741 </v>
   <v>       0.54306104       0.41036694       0.60559578 </v>
   <v>       0.51925770       0.48118949       0.60241232 </v>
   <v>       0.46035614       0.66478811       0.53677402 </v>
   <v>       0.45720651       0.66156244       0.44885722 </v>
   <v>       0.38844830       0.69305562       0.49843788 </v>
   <v>       0.30546409       0.61021395       0.49876683 </v>
   <v>       0.30597587       0.69344499       0.49842118 </v>
   <v>       0.38521674       0.61196224       0.49893766 </v>
   <v>       0.22787434       0.61345595       0.49827246 </v>
   <v>       0.38682345       0.77136340       0.49733882 </v>
   <v>       0.61263812       0.30436059       0.50153327 </v>
   <v>       0.69395683       0.38884292       0.50146032 </v>
   <v>       0.69678799       0.30733315       0.50023763 </v>
   <v>       0.61277002       0.38393350       0.50245660 </v>
   <v>       0.77318720       0.38889150       0.50000147 </v>
   <v>       0.61744263       0.22777667       0.50000810 </v>
   <v>       0.42968396       0.98378301       0.40193996 </v>
   <v>       0.01612319       0.44571709       0.40160085 </v>
   <v>       0.55670460       0.57172465       0.40470772 </v>
   <v>       0.35906198       0.71737121       0.49820260 </v>
   <v>       0.35914396       0.63977439       0.49878443 </v>
   <v>       0.28168485       0.63958524       0.49861717 </v>
   <v>       0.64361201       0.28176991       0.50067009 </v>
   <v>       0.64041541       0.35772757       0.50183271 </v>
   <v>       0.71937157       0.36105520       0.50064340 </v>
   <v>       0.39904718       0.89682462       0.44963565 </v>
   <v>       0.43606283       0.95168209       0.44826568 </v>
   <v>       0.47972295       0.97242599       0.49306220 </v>
   <v>       0.52112303       0.02944918       0.49373025 </v>
   <v>       0.54630085       0.05683546       0.43464843 </v>
   <v>       0.58612671       0.11016763       0.43644312 </v>
   <v>       0.60236588       0.13792155       0.49706837 </v>
   <v>       0.64356986       0.19620937       0.49866893 </v>
   <v>       0.10271699       0.50100855       0.45008760 </v>
   <v>       0.04816020       0.48369302       0.44848592 </v>
   <v>       0.02762389       0.50659146       0.49368354 </v>
   <v>       0.97086343       0.49125224       0.49425599 </v>
   <v>       0.94378476       0.48975575       0.43526098 </v>
   <v>       0.89060163       0.47617972       0.43700938 </v>
   <v>       0.86271163       0.46392352       0.49750796 </v>
   <v>       0.80460046       0.44675880       0.49901186 </v>
   <v>       0.49921458       0.60107503       0.45111589 </v>
   <v>       0.51743250       0.56445417       0.45006914 </v>
   <v>       0.49413073       0.52024509       0.49424459 </v>
   <v>       0.51012613       0.47919625       0.49507941 </v>
   <v>       0.51313441       0.45448782       0.43599175 </v>
   <v>       0.52691896       0.41492305       0.43792091 </v>
   <v>       0.53793479       0.39850308       0.49870292 </v>
   <v>       0.55511112       0.35746667       0.50052853 </v>
   <v>       0.40319042       0.86242438       0.49458214 </v>
   <v>       0.48291293       0.93727096       0.53848213 </v>
   <v>       0.44557477       0.88321989       0.54007770 </v>
   <v>       0.57771697       0.11072234       0.55610838 </v>
   <v>       0.53774681       0.05751321       0.55452850 </v>
   <v>       0.36207037       0.80400005       0.49406569 </v>
   <v>       0.13699950       0.53902605       0.49563103 </v>
   <v>       0.06266073       0.54442131       0.53967810 </v>
   <v>       0.11640981       0.56062290       0.54147662 </v>
   <v>       0.88962911       0.46584975       0.55647881 </v>
   <v>       0.94267335       0.47913904       0.55493426 </v>
   <v>       0.19513037       0.55591596       0.49529609 </v>
   <v>       0.45993189       0.59604470       0.49521442 </v>
   <v>       0.45504289       0.51615833       0.53880719 </v>
   <v>       0.43794405       0.55312385       0.54012267 </v>
   <v>       0.53462467       0.42270392       0.55773309 </v>
   <v>       0.52109752       0.46240880       0.55601063 </v>
   <v>       0.44250463       0.63698249       0.49442243 </v>
  </varray>
 </structure>
</modeling>
