<?xml version="1.0" encoding="ISO-8859-1"?>
<modeling>
 <generator>
  <i name="program" type="string">vasp </i>
  <i name="version" type="string">5.4.4.18Apr17-6-g9f103f2a35  </i>
  <i name="subversion" type="string">(build Jun 07 2020 16:50:00) complex            parallel </i>
  <i name="platform" type="string">LinuxIFC </i>
  <i name="date" type="string">2023 03 01 </i>
  <i name="time" type="string">07:15:48 </i>
 </generator>
 <incar>
  <i type="string" name="SYSTEM">Simulation for cell shape cell volume r</i>
  <i type="int" name="ISTART">     1</i>
  <i type="string" name="PREC">high</i>
  <i type="string" name="ALGO">48</i>
  <i type="int" name="ICHARG">    11</i>
  <i type="int" name="NELM">   200</i>
  <i type="int" name="IBRION">    -1</i>
  <i name="EDIFF">      0.00001000</i>
  <i name="EDIFFG">     -0.01000000</i>
  <i type="int" name="NSW">     0</i>
  <i type="int" name="ISIF">     2</i>
  <i name="ENCUT">    500.00000000</i>
  <i name="POTIM">      0.30000000</i>
  <i type="string" name="LREAL">A</i>
  <i type="int" name="ISMEAR">     0</i>
  <i name="SIGMA">      0.01000000</i>
  <i type="int" name="NWRITE">     0</i>
  <i type="logical" name="LWAVE"> F  </i>
  <i type="logical" name="LCHARG"> F  </i>
  <v type="int" name="KPOINT_BSE">    -1     0     0     0</v>
  <i type="int" name="NELM">   200</i>
  <i type="string" name="GGA">PE</i>
 </incar>
 <structure name="primitive_cell" >
  <crystal>
   <varray name="basis" >
    <v>      22.13377868       0.03810442       0.00000000 </v>
    <v>     -11.03416360      19.13265612       0.00000000 </v>
    <v>       0.00000000       0.00000000      20.00000000 </v>
   </varray>
   <i name="volume">   8477.96853128 </i>
   <varray name="rec_basis" >
    <v>       0.04513500       0.02603021       0.00000000 </v>
    <v>      -0.00008989       0.05221482       0.00000000 </v>
    <v>       0.00000000       0.00000000       0.05000000 </v>
   </varray>
  </crystal>
  <varray name="positions" >
   <v>       0.08942800      -0.40446538      -0.49262785 </v>
   <v>       0.16169909      -0.36732845      -0.49140423 </v>
   <v>       0.05066062      -0.47787155      -0.49680734 </v>
   <v>       0.05394748      -0.36258869      -0.48926777 </v>
   <v>       0.18860054      -0.31070691      -0.48725423 </v>
   <v>       0.08750477      -0.30293505      -0.46613254 </v>
   <v>      -0.00680102      -0.38987954       0.48965226 </v>
   <v>       0.09049695       0.48850152       0.49932841 </v>
   <v>       0.19918586      -0.40271615      -0.49564471 </v>
   <v>      -0.02723225       0.48297084      -0.49562145 </v>
   <v>       0.16271107      -0.47553518       0.49932091 </v>
   <v>       0.03226617      -0.49505685      -0.36757329 </v>
   <v>       0.02841399      -0.48759453       0.37544133 </v>
   <v>      -0.06502767       0.47058486      -0.43574044 </v>
   <v>      -0.02862294       0.49329959      -0.37059205 </v>
   <v>      -0.06788597       0.45701641       0.44613554 </v>
   <v>       0.05604341       0.41140650       0.49483023 </v>
   <v>       0.27617586      -0.36382062      -0.49493331 </v>
   <v>      -0.03459702       0.46870683       0.37957610 </v>
   <v>       0.19043914       0.49547574       0.49562917 </v>
   <v>      -0.00606657       0.37717906      -0.48809282 </v>
   <v>       0.30817520      -0.29374914      -0.49496912 </v>
   <v>      -0.06157534       0.49853912      -0.32317678 </v>
   <v>      -0.13745744       0.43663092      -0.43370058 </v>
   <v>       0.09140113       0.38608603       0.47450836 </v>
   <v>      -0.14029107       0.41977381       0.44727907 </v>
   <v>       0.30895694      -0.40119260      -0.49436172 </v>
   <v>      -0.07170072       0.43454222       0.33209734 </v>
   <v>       0.32415525      -0.17376660      -0.49903435 </v>
   <v>      -0.17547457       0.41011013      -0.49240986 </v>
   <v>      -0.16282989       0.43070339      -0.38556968 </v>
   <v>       0.37811730      -0.26106154      -0.49485797 </v>
   <v>      -0.16799579       0.39975311       0.40025797 </v>
   <v>       0.37885519      -0.36339424      -0.49436654 </v>
   <v>       0.38079100      -0.14659967      -0.49708888 </v>
   <v>       0.41594566      -0.29333262      -0.49483547 </v>
   <v>       0.41648877      -0.18391824      -0.49484657 </v>
   <v>       0.31471652      -0.07314985       0.48355531 </v>
   <v>       0.32590468       0.49591833      -0.48686694 </v>
   <v>      -0.25313008       0.37149860      -0.49123913 </v>
   <v>      -0.28517657       0.40953868      -0.48944217 </v>
   <v>       0.41778393      -0.40168819      -0.49385638 </v>
   <v>       0.41766277      -0.07420432      -0.49646098 </v>
   <v>       0.37585941      -0.03869628      -0.49763574 </v>
   <v>       0.38247985      -0.47453904      -0.48992127 </v>
   <v>      -0.28512673       0.30147770      -0.49275209 </v>
   <v>       0.48927630      -0.14712949      -0.49257293 </v>
   <v>      -0.48155023      -0.17474630      -0.49040979 </v>
   <v>       0.31762860       0.38661748      -0.46649950 </v>
   <v>       0.49054768      -0.36560658      -0.49735791 </v>
   <v>       0.40480195       0.02327428      -0.47939895 </v>
   <v>      -0.35506447       0.37163838      -0.49024974 </v>
   <v>       0.49103550      -0.03510792      -0.49502181 </v>
   <v>      -0.48049669      -0.30891511       0.49933754 </v>
   <v>       0.41962350       0.49012420      -0.49024594 </v>
   <v>      -0.47505795      -0.07475355      -0.49340705 </v>
   <v>      -0.35500657       0.26940693      -0.49233239 </v>
   <v>       0.37801119       0.41289799      -0.48748886 </v>
   <v>      -0.49951183      -0.01611487      -0.36641424 </v>
   <v>       0.49941427      -0.01413339       0.37703509 </v>
   <v>      -0.39285877       0.30163773      -0.49161952 </v>
   <v>      -0.39395335       0.41065378      -0.49053462 </v>
   <v>      -0.38537611       0.42792588       0.40205479 </v>
   <v>      -0.47348681      -0.40207786      -0.49642070 </v>
   <v>      -0.40472009       0.43583064       0.44941984 </v>
   <v>       0.49294586      -0.47553244      -0.49319407 </v>
   <v>      -0.46960858       0.04295965      -0.49446383 </v>
   <v>      -0.39402248       0.19156303      -0.49303714 </v>
   <v>      -0.41324896       0.40290328      -0.38345749 </v>
   <v>      -0.41994889       0.42214870      -0.43142727 </v>
   <v>      -0.48209685       0.04884457       0.38123885 </v>
   <v>      -0.38143583       0.18007278      -0.38681591 </v>
   <v>      -0.39799538      -0.03999564      -0.49230473 </v>
   <v>      -0.36271499      -0.38824988      -0.48210825 </v>
   <v>       0.40629151       0.37956560       0.49315107 </v>
   <v>      -0.45233104       0.04574382      -0.37012602 </v>
   <v>      -0.37169556      -0.07409932      -0.47083104 </v>
   <v>      -0.40293906       0.15410925      -0.43431255 </v>
   <v>      -0.49772780      -0.48718231       0.37931448 </v>
   <v>      -0.49276487      -0.47997418      -0.36452643 </v>
   <v>      -0.45752464       0.08301575       0.44715238 </v>
   <v>      -0.41674070       0.18280615       0.40052370 </v>
   <v>      -0.44147626       0.08152649      -0.43537650 </v>
   <v>      -0.42227983       0.15560626       0.44750718 </v>
   <v>      -0.44207487       0.47109839       0.44896489 </v>
   <v>      -0.48214892       0.08527172       0.33434749 </v>
   <v>      -0.42147592       0.48882666       0.33456574 </v>
   <v>      -0.39649757      -0.35977644      -0.49943763 </v>
   <v>      -0.45472486       0.46005047      -0.43285445 </v>
   <v>      -0.37075398      -0.29874240       0.48120015 </v>
   <v>      -0.36484265       0.02090960       0.48660246 </v>
   <v>      -0.46779925       0.48555691      -0.49239908 </v>
   <v>      -0.45446949       0.49269303       0.38266552 </v>
   <v>      -0.41411511       0.08000384      -0.32326494 </v>
   <v>      -0.47766445       0.47296162      -0.36748286 </v>
   <v>      -0.47976465       0.43639667      -0.31974568 </v>
  </varray>
 </structure>
 <varray name="primitive_index" >
  <v type="int" >        1 </v>
  <v type="int" >        2 </v>
  <v type="int" >        5 </v>
  <v type="int" >       67 </v>
  <v type="int" >       85 </v>
  <v type="int" >       43 </v>
  <v type="int" >       45 </v>
  <v type="int" >        4 </v>
  <v type="int" >        7 </v>
  <v type="int" >       40 </v>
  <v type="int" >        3 </v>
  <v type="int" >       57 </v>
  <v type="int" >       66 </v>
  <v type="int" >       25 </v>
  <v type="int" >       79 </v>
  <v type="int" >       41 </v>
  <v type="int" >       68 </v>
  <v type="int" >        6 </v>
  <v type="int" >       84 </v>
  <v type="int" >       86 </v>
  <v type="int" >       44 </v>
  <v type="int" >       70 </v>
  <v type="int" >       58 </v>
  <v type="int" >       24 </v>
  <v type="int" >       46 </v>
  <v type="int" >       42 </v>
  <v type="int" >       69 </v>
  <v type="int" >       65 </v>
  <v type="int" >       88 </v>
  <v type="int" >       23 </v>
  <v type="int" >       92 </v>
  <v type="int" >        9 </v>
  <v type="int" >       96 </v>
  <v type="int" >        8 </v>
  <v type="int" >       27 </v>
  <v type="int" >       71 </v>
  <v type="int" >       26 </v>
  <v type="int" >       50 </v>
  <v type="int" >       87 </v>
  <v type="int" >       11 </v>
  <v type="int" >       72 </v>
  <v type="int" >       33 </v>
  <v type="int" >       28 </v>
  <v type="int" >       81 </v>
  <v type="int" >       19 </v>
  <v type="int" >       73 </v>
  <v type="int" >       14 </v>
  <v type="int" >       89 </v>
  <v type="int" >       47 </v>
  <v type="int" >       34 </v>
  <v type="int" >       49 </v>
  <v type="int" >       10 </v>
  <v type="int" >       29 </v>
  <v type="int" >       95 </v>
  <v type="int" >       18 </v>
  <v type="int" >       13 </v>
  <v type="int" >       12 </v>
  <v type="int" >       78 </v>
  <v type="int" >       51 </v>
  <v type="int" >       60 </v>
  <v type="int" >       74 </v>
  <v type="int" >       20 </v>
  <v type="int" >       94 </v>
  <v type="int" >       35 </v>
  <v type="int" >       39 </v>
  <v type="int" >       36 </v>
  <v type="int" >       30 </v>
  <v type="int" >       15 </v>
  <v type="int" >       91 </v>
  <v type="int" >       21 </v>
  <v type="int" >       80 </v>
  <v type="int" >       90 </v>
  <v type="int" >       76 </v>
  <v type="int" >       61 </v>
  <v type="int" >       48 </v>
  <v type="int" >       75 </v>
  <v type="int" >       52 </v>
  <v type="int" >       16 </v>
  <v type="int" >       64 </v>
  <v type="int" >       55 </v>
  <v type="int" >       31 </v>
  <v type="int" >       93 </v>
  <v type="int" >       17 </v>
  <v type="int" >       32 </v>
  <v type="int" >       38 </v>
  <v type="int" >       59 </v>
  <v type="int" >       62 </v>
  <v type="int" >       83 </v>
  <v type="int" >       22 </v>
  <v type="int" >       63 </v>
  <v type="int" >       54 </v>
  <v type="int" >       37 </v>
  <v type="int" >       82 </v>
  <v type="int" >       53 </v>
  <v type="int" >       77 </v>
  <v type="int" >       56 </v>
 </varray>
 <kpoints>
  <generation param="listgenerated">
   <i name="divisions" type="int">      20 </i>
   <v>       0.00000000       0.00000000       0.00000000 </v>
   <v>       0.50000000       0.00000000       0.00000000 </v>
   <v>       0.33333333       0.33333333       0.00000000 </v>
   <v>       0.00000000       0.00000000       0.00000000 </v>
  </generation>
  <varray name="kpointlist" >
   <v>       0.00000000       0.00000000       0.00000000 </v>
   <v>       0.02631579       0.00000000       0.00000000 </v>
   <v>       0.05263158       0.00000000       0.00000000 </v>
   <v>       0.07894737       0.00000000       0.00000000 </v>
   <v>       0.10526316       0.00000000       0.00000000 </v>
   <v>       0.13157895       0.00000000       0.00000000 </v>
   <v>       0.15789474       0.00000000       0.00000000 </v>
   <v>       0.18421053       0.00000000       0.00000000 </v>
   <v>       0.21052632       0.00000000       0.00000000 </v>
   <v>       0.23684211       0.00000000       0.00000000 </v>
   <v>       0.26315789       0.00000000       0.00000000 </v>
   <v>       0.28947368       0.00000000       0.00000000 </v>
   <v>       0.31578947       0.00000000       0.00000000 </v>
   <v>       0.34210526       0.00000000       0.00000000 </v>
   <v>       0.36842105       0.00000000       0.00000000 </v>
   <v>       0.39473684       0.00000000       0.00000000 </v>
   <v>       0.42105263       0.00000000       0.00000000 </v>
   <v>       0.44736842       0.00000000       0.00000000 </v>
   <v>       0.47368421       0.00000000       0.00000000 </v>
   <v>       0.50000000       0.00000000       0.00000000 </v>
   <v>       0.50000000       0.00000000       0.00000000 </v>
   <v>       0.49122807       0.01754386       0.00000000 </v>
   <v>       0.48245614       0.03508772       0.00000000 </v>
   <v>       0.47368421       0.05263158       0.00000000 </v>
   <v>       0.46491228       0.07017544       0.00000000 </v>
   <v>       0.45614035       0.08771930       0.00000000 </v>
   <v>       0.44736842       0.10526316       0.00000000 </v>
   <v>       0.43859649       0.12280702       0.00000000 </v>
   <v>       0.42982456       0.14035088       0.00000000 </v>
   <v>       0.42105263       0.15789474       0.00000000 </v>
   <v>       0.41228070       0.17543860       0.00000000 </v>
   <v>       0.40350877       0.19298246       0.00000000 </v>
   <v>       0.39473684       0.21052632       0.00000000 </v>
   <v>       0.38596491       0.22807018       0.00000000 </v>
   <v>       0.37719298       0.24561404       0.00000000 </v>
   <v>       0.36842105       0.26315789       0.00000000 </v>
   <v>       0.35964912       0.28070175       0.00000000 </v>
   <v>       0.35087719       0.29824561       0.00000000 </v>
   <v>       0.34210526       0.31578947       0.00000000 </v>
   <v>       0.33333333       0.33333333       0.00000000 </v>
   <v>       0.33333333       0.33333333       0.00000000 </v>
   <v>       0.31578947       0.31578947       0.00000000 </v>
   <v>       0.29824561       0.29824561       0.00000000 </v>
   <v>       0.28070175       0.28070175       0.00000000 </v>
   <v>       0.26315789       0.26315789       0.00000000 </v>
   <v>       0.24561404       0.24561404       0.00000000 </v>
   <v>       0.22807018       0.22807018       0.00000000 </v>
   <v>       0.21052632       0.21052632       0.00000000 </v>
   <v>       0.19298246       0.19298246       0.00000000 </v>
   <v>       0.17543860       0.17543860       0.00000000 </v>
   <v>       0.15789474       0.15789474       0.00000000 </v>
   <v>       0.14035088       0.14035088       0.00000000 </v>
   <v>       0.12280702       0.12280702       0.00000000 </v>
   <v>       0.10526316       0.10526316       0.00000000 </v>
   <v>       0.08771930       0.08771930       0.00000000 </v>
   <v>       0.07017544       0.07017544       0.00000000 </v>
   <v>       0.05263158       0.05263158       0.00000000 </v>
   <v>       0.03508772       0.03508772       0.00000000 </v>
   <v>       0.01754386       0.01754386       0.00000000 </v>
   <v>       0.00000000       0.00000000       0.00000000 </v>
  </varray>
  <varray name="weights" >
   <v>       0.01666667 </v>
   <v>       0.01666667 </v>
   <v>       0.01666667 </v>
   <v>       0.01666667 </v>
   <v>       0.01666667 </v>
   <v>       0.01666667 </v>
   <v>       0.01666667 </v>
   <v>       0.01666667 </v>
   <v>       0.01666667 </v>
   <v>       0.01666667 </v>
   <v>       0.01666667 </v>
   <v>       0.01666667 </v>
   <v>       0.01666667 </v>
   <v>       0.01666667 </v>
   <v>       0.01666667 </v>
   <v>       0.01666667 </v>
   <v>       0.01666667 </v>
   <v>       0.01666667 </v>
   <v>       0.01666667 </v>
   <v>       0.01666667 </v>
   <v>       0.01666667 </v>
   <v>       0.01666667 </v>
   <v>       0.01666667 </v>
   <v>       0.01666667 </v>
   <v>       0.01666667 </v>
   <v>       0.01666667 </v>
   <v>       0.01666667 </v>
   <v>       0.01666667 </v>
   <v>       0.01666667 </v>
   <v>       0.01666667 </v>
   <v>       0.01666667 </v>
   <v>       0.01666667 </v>
   <v>       0.01666667 </v>
   <v>       0.01666667 </v>
   <v>       0.01666667 </v>
   <v>       0.01666667 </v>
   <v>       0.01666667 </v>
   <v>       0.01666667 </v>
   <v>       0.01666667 </v>
   <v>       0.01666667 </v>
   <v>       0.01666667 </v>
   <v>       0.01666667 </v>
   <v>       0.01666667 </v>
   <v>       0.01666667 </v>
   <v>       0.01666667 </v>
   <v>       0.01666667 </v>
   <v>       0.01666667 </v>
   <v>       0.01666667 </v>
   <v>       0.01666667 </v>
   <v>       0.01666667 </v>
   <v>       0.01666667 </v>
   <v>       0.01666667 </v>
   <v>       0.01666667 </v>
   <v>       0.01666667 </v>
   <v>       0.01666667 </v>
   <v>       0.01666667 </v>
   <v>       0.01666667 </v>
   <v>       0.01666667 </v>
   <v>       0.01666667 </v>
   <v>       0.01666667 </v>
  </varray>
 </kpoints>
 <parameters>
  <separator name="general" >
   <i type="string" name="SYSTEM">Simulation for cell shape cell volume r</i>
   <i type="logical" name="LCOMPAT"> F  </i>
  </separator>
  <separator name="electronic" >
   <i type="string" name="PREC">high</i>
   <i name="ENMAX">    500.00000000</i>
   <i name="ENAUG">    644.87300000</i>
   <i name="EDIFF">      0.00001000</i>
   <i type="int" name="IALGO">    38</i>
   <i type="int" name="IWAVPR">    10</i>
   <i type="int" name="NBANDS">   256</i>
   <i name="NELECT">    414.00000000</i>
   <i type="int" name="TURBO">     0</i>
   <i type="int" name="IRESTART">     0</i>
   <i type="int" name="NREBOOT">     0</i>
   <i type="int" name="NMIN">     0</i>
   <i name="EREF">      0.00000000</i>
   <separator name="electronic smearing" >
    <i type="int" name="ISMEAR">     0</i>
    <i name="SIGMA">      0.01000000</i>
    <i name="KSPACING">      0.50000000</i>
    <i type="logical" name="KGAMMA"> T  </i>
   </separator>
   <separator name="electronic projectors" >
    <i type="logical" name="LREAL"> T  </i>
    <v name="ROPT">     -0.00040000     -0.00040000     -0.00040000     -0.00040000</v>
    <i type="int" name="LMAXPAW">  -100</i>
    <i type="int" name="LMAXMIX">     2</i>
    <i type="logical" name="NLSPLINE"> F  </i>
   </separator>
   <separator name="electronic startup" >
    <i type="int" name="ISTART">     1</i>
    <i type="int" name="ICHARG">    11</i>
    <i type="int" name="INIWAV">     1</i>
   </separator>
   <separator name="electronic spin" >
    <i type="int" name="ISPIN">     1</i>
    <i type="logical" name="LNONCOLLINEAR"> F  </i>
    <v name="MAGMOM">      1.00000000      1.00000000      1.00000000      1.00000000      1.00000000      1.00000000      1.00000000      1.00000000      1.00000000      1.00000000      1.00000000      1.00000000      1.00000000      1.00000000      1.00000000      1.00000000      1.00000000      1.00000000      1.00000000      1.00000000
      1.00000000      1.00000000      1.00000000      1.00000000      1.00000000      1.00000000      1.00000000      1.00000000      1.00000000      1.00000000      1.00000000      1.00000000      1.00000000      1.00000000      1.00000000      1.00000000      1.00000000      1.00000000      1.00000000      1.00000000
      1.00000000      1.00000000      1.00000000      1.00000000      1.00000000      1.00000000      1.00000000      1.00000000      1.00000000      1.00000000      1.00000000      1.00000000      1.00000000      1.00000000      1.00000000      1.00000000      1.00000000      1.00000000      1.00000000      1.00000000
      1.00000000      1.00000000      1.00000000      1.00000000      1.00000000      1.00000000      1.00000000      1.00000000      1.00000000      1.00000000      1.00000000      1.00000000      1.00000000      1.00000000      1.00000000      1.00000000      1.00000000      1.00000000      1.00000000      1.00000000
      1.00000000      1.00000000      1.00000000      1.00000000      1.00000000      1.00000000      1.00000000      1.00000000      1.00000000      1.00000000      1.00000000      1.00000000      1.00000000      1.00000000      1.00000000      1.00000000</v>
    <i name="NUPDOWN">     -1.00000000</i>
    <i type="logical" name="LSORBIT"> F  </i>
    <v name="SAXIS">      0.00000000      0.00000000      1.00000000</v>
    <i type="logical" name="LSPIRAL"> F  </i>
    <v name="QSPIRAL">      0.00000000      0.00000000      0.00000000</v>
    <i type="logical" name="LZEROZ"> F  </i>
   </separator>
   <separator name="electronic exchange-correlation" >
    <i type="logical" name="LASPH"> F  </i>
    <i type="logical" name="LMETAGGA"> F  </i>
   </separator>
   <separator name="electronic convergence" >
    <i type="int" name="NELM">   200</i>
    <i type="int" name="NELMDL">     0</i>
    <i type="int" name="NELMIN">     2</i>
    <i name="ENINI">    500.00000000</i>
    <separator name="electronic convergence detail" >
     <i type="logical" name="LDIAG"> T  </i>
     <i type="logical" name="LSUBROT"> F  </i>
     <i name="WEIMIN">      0.00000000</i>
     <i name="EBREAK">      0.00000001</i>
     <i name="DEPER">      0.30000000</i>
     <i type="int" name="NRMM">     4</i>
     <i name="TIME">      0.40000000</i>
    </separator>
   </separator>
   <separator name="electronic mixer" >
    <i name="AMIX">      0.40000000</i>
    <i name="BMIX">      1.00000000</i>
    <i name="AMIN">      0.10000000</i>
    <i name="AMIX_MAG">      1.60000000</i>
    <i name="BMIX_MAG">      1.00000000</i>
    <separator name="electronic mixer details" >
     <i type="int" name="IMIX">     4</i>
     <i type="logical" name="MIXFIRST"> F  </i>
     <i type="int" name="MAXMIX">   -45</i>
     <i name="WC">    100.00000000</i>
     <i type="int" name="INIMIX">     1</i>
     <i type="int" name="MIXPRE">     1</i>
     <i type="int" name="MREMOVE">     5</i>
    </separator>
   </separator>
   <separator name="electronic dipolcorrection" >
    <i type="logical" name="LDIPOL"> F  </i>
    <i type="logical" name="LMONO"> F  </i>
    <i type="int" name="IDIPOL">     0</i>
    <i name="EPSILON">      1.00000000</i>
    <v name="DIPOL">   -100.00000000   -100.00000000   -100.00000000</v>
    <i name="EFIELD">      0.00000000</i>
   </separator>
  </separator>
  <separator name="grids" >
   <i type="int" name="NGX">   162</i>
   <i type="int" name="NGY">   162</i>
   <i type="int" name="NGZ">   150</i>
   <i type="int" name="NGXF">   250</i>
   <i type="int" name="NGYF">   250</i>
   <i type="int" name="NGZF">   224</i>
   <i type="logical" name="ADDGRID"> F  </i>
  </separator>
  <separator name="ionic" >
   <i type="int" name="NSW">     0</i>
   <i type="int" name="IBRION">    -1</i>
   <i type="int" name="MDALGO">     0</i>
   <i type="int" name="ISIF">     2</i>
   <i name="PSTRESS">      0.00000000</i>
   <i name="EDIFFG">     -0.01000000</i>
   <i type="int" name="NFREE">     0</i>
   <i name="POTIM">      0.30000000</i>
   <i name="SMASS">     -3.00000000</i>
   <i name="SCALEE">      1.00000000</i>
  </separator>
  <separator name="ionic md" >
   <i name="TEBEG">      0.00010000</i>
   <i name="TEEND">      0.00010000</i>
   <i type="int" name="NBLOCK">     1</i>
   <i type="int" name="KBLOCK">     1</i>
   <i type="int" name="NPACO">   256</i>
   <i name="APACO">     16.00000000</i>
  </separator>
  <separator name="symmetry" >
   <i type="int" name="ISYM">     2</i>
   <i name="SYMPREC">      0.00001000</i>
  </separator>
  <separator name="dos" >
   <i type="int" name="LORBIT">     0</i>
   <v name="RWIGS">     -1.00000000     -1.00000000     -1.00000000     -1.00000000</v>
   <i type="int" name="NEDOS">   301</i>
   <i name="EMIN">     10.00000000</i>
   <i name="EMAX">    -10.00000000</i>
   <i name="EFERMI">      0.00000000</i>
  </separator>
  <separator name="writing" >
   <i type="int" name="NWRITE">     0</i>
   <i type="logical" name="LWAVE"> F  </i>
   <i type="logical" name="LDOWNSAMPLE"> F  </i>
   <i type="logical" name="LCHARG"> F  </i>
   <i type="logical" name="LPARD"> F  </i>
   <i type="logical" name="LVTOT"> F  </i>
   <i type="logical" name="LVHAR"> F  </i>
   <i type="logical" name="LELF"> F  </i>
   <i type="logical" name="LOPTICS"> F  </i>
   <v name="STM">      0.00000000      0.00000000      0.00000000      0.00000000      0.00000000      0.00000000      0.00000000</v>
  </separator>
  <separator name="performance" >
   <i type="int" name="NPAR">    16</i>
   <i type="int" name="NSIM">     4</i>
   <i type="int" name="NBLK">    -1</i>
   <i type="logical" name="LPLANE"> T  </i>
   <i type="logical" name="LSCALAPACK"> T  </i>
   <i type="logical" name="LSCAAWARE"> F  </i>
   <i type="logical" name="LSCALU"> F  </i>
   <i type="logical" name="LASYNC"> F  </i>
   <i type="logical" name="LORBITALREAL"> F  </i>
  </separator>
  <separator name="miscellaneous" >
   <i type="int" name="IDIOT">     3</i>
   <i type="int" name="ISPECIAL">     0</i>
   <i type="logical" name="LMUSIC"> F  </i>
   <v name="POMASS">     12.01100000     16.00000000     14.00100000      1.00000000</v>
   <v name="DARWINR">      0.00000000      0.00000000      0.00000000      0.00000000</v>
   <v name="DARWINV">      1.00000000      1.00000000      1.00000000      1.00000000</v>
   <i type="logical" name="LCORR"> T  </i>
  </separator>
  <i type="logical" name="GGA_COMPAT"> T  </i>
  <i type="logical" name="LBERRY"> F  </i>
  <i type="int" name="ICORELEVEL">     0</i>
  <i type="logical" name="LDAU"> F  </i>
  <i type="int" name="I_CONSTRAINED_M">     0</i>
  <separator name="electronic exchange-correlation" >
   <i type="string" name="GGA">PE</i>
   <i type="int" name="VOSKOWN">     0</i>
   <i type="logical" name="LHFCALC"> F  </i>
   <i type="string" name="PRECFOCK"></i>
   <i type="logical" name="LSYMGRAD"> F  </i>
   <i type="logical" name="LHFONE"> F  </i>
   <i type="logical" name="LRHFCALC"> F  </i>
   <i type="logical" name="LTHOMAS"> F  </i>
   <i type="logical" name="LMODELHF"> F  </i>
   <i name="ENCUT4O">     -1.00000000</i>
   <i type="int" name="EXXOEP">     0</i>
   <i type="int" name="FOURORBIT">     0</i>
   <i name="AEXX">      0.00000000</i>
   <i name="HFALPHA">      0.00000000</i>
   <i name="MCALPHA">      0.00000000</i>
   <i name="ALDAX">      1.00000000</i>
   <i name="AGGAX">      1.00000000</i>
   <i name="ALDAC">      1.00000000</i>
   <i name="AGGAC">      1.00000000</i>
   <i type="int" name="NKREDX">     1</i>
   <i type="int" name="NKREDY">     1</i>
   <i type="int" name="NKREDZ">     1</i>
   <i type="logical" name="SHIFTRED"> F  </i>
   <i type="logical" name="ODDONLY"> F  </i>
   <i type="logical" name="EVENONLY"> F  </i>
   <i type="int" name="LMAXFOCK">     0</i>
   <i type="int" name="NMAXFOCKAE">     0</i>
   <i type="logical" name="LFOCKAEDFT"> F  </i>
   <i name="HFSCREEN">      0.00000000</i>
   <i name="HFSCREENC">      0.00000000</i>
   <i type="int" name="NBANDSGWLOW">     0</i>
  </separator>
  <separator name="vdW DFT" >
   <i type="logical" name="LUSE_VDW"> F  </i>
   <i name="Zab_VDW">     -0.84910000</i>
   <i name="PARAM1">      0.12340000</i>
   <i name="PARAM2">      1.00000000</i>
   <i name="PARAM3">      0.00000000</i>
  </separator>
  <separator name="model GW" >
   <i type="int" name="MODEL_GW">     0</i>
   <i name="MODEL_EPS0">     52.98730332</i>
   <i name="MODEL_ALPHA">      1.00000000</i>
  </separator>
  <separator name="linear response parameters" >
   <i type="logical" name="LEPSILON"> F  </i>
   <i type="logical" name="LRPA"> F  </i>
   <i type="logical" name="LNABLA"> F  </i>
   <i type="logical" name="LVEL"> F  </i>
   <i type="int" name="KINTER">     0</i>
   <i name="CSHIFT">      0.10000000</i>
   <i name="OMEGAMAX">     -1.00000000</i>
   <i name="DEG_THRESHOLD">      0.00200000</i>
   <i name="RTIME">     -0.10000000</i>
   <i name="WPLASMAI">      0.00000000</i>
   <v name="DFIELD">      0.00000000      0.00000000      0.00000000</v>
   <v name="WPLASMA">      0.00000000      0.00000000      0.00000000      0.00000000      0.00000000      0.00000000      0.00000000      0.00000000      0.00000000</v>
  </separator>
  <separator name="orbital magnetization" >
   <i type="logical" name="NUCIND"> F  </i>
   <v name="MAGPOS">      0.00000000      0.00000000      0.00000000</v>
   <i type="logical" name="LNICSALL"> T  </i>
   <i type="logical" name="ORBITALMAG"> F  </i>
   <i type="logical" name="LMAGBLOCH"> F  </i>
   <i type="logical" name="LCHIMAG"> F  </i>
   <i type="logical" name="LGAUGE"> T  </i>
   <i type="int" name="MAGATOM">     0</i>
   <v name="MAGDIPOL">      0.00000000      0.00000000      0.00000000</v>
   <v name="AVECCONST">      0.00000000      0.00000000      0.00000000</v>
  </separator>
  <separator name="response functions" >
   <i type="logical" name="LADDER"> F  </i>
   <i type="logical" name="LRPAFORCE"> F  </i>
   <i type="logical" name="LFXC"> F  </i>
   <i type="logical" name="LHARTREE"> T  </i>
   <i type="int" name="IBSE">     0</i>
   <v type="int" name="KPOINT">    -1     0     0     0</v>
   <i type="logical" name="LTCTE"> F  </i>
   <i type="logical" name="LTETE"> F  </i>
   <i type="logical" name="LTRIPLET"> F  </i>
   <i type="logical" name="LFXCEPS"> F  </i>
   <i type="logical" name="LFXHEG"> F  </i>
   <i type="int" name="NATURALO">     2</i>
   <i type="logical" name="L2ORDER"> F  </i>
   <i type="logical" name="LMP2LT"> F  </i>
   <i type="logical" name="LUSEW"> F  </i>
   <i name="ENCUTGW">     -2.00000000</i>
   <i name="ENCUTGWSOFT">     -2.00000000</i>
   <i name="ENCUTLF">     -1.00000000</i>
   <i type="int" name="LMAXMP2">    -1</i>
   <i name="SCISSOR">      0.00000000</i>
   <i type="int" name="NOMEGA">     0</i>
   <i type="int" name="NOMEGAR">     0</i>
   <i type="int" name="NBANDSGW">    -1</i>
   <i type="int" name="NBANDSO">    -1</i>
   <i type="int" name="NBANDSV">    -1</i>
   <i type="int" name="NELM">   200</i>
   <i type="int" name="NELMHF">     1</i>
   <i type="int" name="DIM">     3</i>
   <i type="int" name="ANTIRES">     0</i>
   <i name="OMEGAMAX">    -30.00000000</i>
   <i name="OMEGAMIN">    -30.00000000</i>
   <i name="OMEGATL">   -200.00000000</i>
   <i type="int" name="OMEGAGRID">   140</i>
   <i name="CSHIFT">     -0.10000000</i>
   <i type="logical" name="SELFENERGY"> F  </i>
   <i type="logical" name="LSPECTRAL"> F  </i>
   <i type="logical" name="LSPECTRALGW"> F  </i>
   <i type="logical" name="LSINGLES"> F  </i>
   <i type="logical" name="LFERMIGW"> F  </i>
   <i type="logical" name="ODDONLYGW"> F  </i>
   <i type="logical" name="EVENONLYGW"> F  </i>
   <i type="int" name="NKREDLFX">     1</i>
   <i type="int" name="NKREDLFY">     1</i>
   <i type="int" name="NKREDLFZ">     1</i>
   <i type="int" name="MAXMEM">  2800</i>
   <i type="int" name="TELESCOPE">     0</i>
   <i type="int" name="TAUPAR">     1</i>
   <i type="int" name="OMEGAPAR">    -1</i>
   <i name="LAMBDA">      1.00000000</i>
  </separator>
  <separator name="External order field" >
   <i name="OFIELD_KAPPA">      0.00000000</i>
   <v name="OFIELD_K">      0.00000000      0.00000000      0.00000000</v>
   <i name="OFIELD_Q6_NEAR">      0.00000000</i>
   <i name="OFIELD_Q6_FAR">      0.00000000</i>
   <i name="OFIELD_A">      0.00000000</i>
  </separator>
  <separator name="solvation model" >
   <i type="logical" name="LSOL"> F  </i>
  </separator>
 </parameters>
 <atominfo>
  <atoms>      96 </atoms>
  <types>       4 </types>
  <array name="atoms" >
   <dimension dim="1">ion</dimension>
   <field type="string">element</field>
   <field type="int">atomtype</field>
   <set>
    <rc><c>C </c><c>   1</c></rc>
    <rc><c>C </c><c>   1</c></rc>
    <rc><c>C </c><c>   1</c></rc>
    <rc><c>C </c><c>   1</c></rc>
    <rc><c>C </c><c>   1</c></rc>
    <rc><c>C </c><c>   1</c></rc>
    <rc><c>C </c><c>   1</c></rc>
    <rc><c>C </c><c>   1</c></rc>
    <rc><c>C </c><c>   1</c></rc>
    <rc><c>C </c><c>   1</c></rc>
    <rc><c>C </c><c>   1</c></rc>
    <rc><c>C </c><c>   1</c></rc>
    <rc><c>C </c><c>   1</c></rc>
    <rc><c>C </c><c>   1</c></rc>
    <rc><c>C </c><c>   1</c></rc>
    <rc><c>C </c><c>   1</c></rc>
    <rc><c>C </c><c>   1</c></rc>
    <rc><c>C </c><c>   1</c></rc>
    <rc><c>C </c><c>   1</c></rc>
    <rc><c>C </c><c>   1</c></rc>
    <rc><c>C </c><c>   1</c></rc>
    <rc><c>C </c><c>   1</c></rc>
    <rc><c>C </c><c>   1</c></rc>
    <rc><c>C </c><c>   1</c></rc>
    <rc><c>C </c><c>   1</c></rc>
    <rc><c>C </c><c>   1</c></rc>
    <rc><c>C </c><c>   1</c></rc>
    <rc><c>C </c><c>   1</c></rc>
    <rc><c>C </c><c>   1</c></rc>
    <rc><c>C </c><c>   1</c></rc>
    <rc><c>C </c><c>   1</c></rc>
    <rc><c>C </c><c>   1</c></rc>
    <rc><c>C </c><c>   1</c></rc>
    <rc><c>C </c><c>   1</c></rc>
    <rc><c>C </c><c>   1</c></rc>
    <rc><c>C </c><c>   1</c></rc>
    <rc><c>C </c><c>   1</c></rc>
    <rc><c>C </c><c>   1</c></rc>
    <rc><c>C </c><c>   1</c></rc>
    <rc><c>C </c><c>   1</c></rc>
    <rc><c>C </c><c>   1</c></rc>
    <rc><c>C </c><c>   1</c></rc>
    <rc><c>O </c><c>   2</c></rc>
    <rc><c>O </c><c>   2</c></rc>
    <rc><c>O </c><c>   2</c></rc>
    <rc><c>O </c><c>   2</c></rc>
    <rc><c>O </c><c>   2</c></rc>
    <rc><c>O </c><c>   2</c></rc>
    <rc><c>O </c><c>   2</c></rc>
    <rc><c>O </c><c>   2</c></rc>
    <rc><c>O </c><c>   2</c></rc>
    <rc><c>O </c><c>   2</c></rc>
    <rc><c>O </c><c>   2</c></rc>
    <rc><c>O </c><c>   2</c></rc>
    <rc><c>O </c><c>   2</c></rc>
    <rc><c>O </c><c>   2</c></rc>
    <rc><c>O </c><c>   2</c></rc>
    <rc><c>O </c><c>   2</c></rc>
    <rc><c>O </c><c>   2</c></rc>
    <rc><c>O </c><c>   2</c></rc>
    <rc><c>O </c><c>   2</c></rc>
    <rc><c>O </c><c>   2</c></rc>
    <rc><c>O </c><c>   2</c></rc>
    <rc><c>O </c><c>   2</c></rc>
    <rc><c>O </c><c>   2</c></rc>
    <rc><c>O </c><c>   2</c></rc>
    <rc><c>N </c><c>   3</c></rc>
    <rc><c>N </c><c>   3</c></rc>
    <rc><c>N </c><c>   3</c></rc>
    <rc><c>N </c><c>   3</c></rc>
    <rc><c>N </c><c>   3</c></rc>
    <rc><c>N </c><c>   3</c></rc>
    <rc><c>N </c><c>   3</c></rc>
    <rc><c>N </c><c>   3</c></rc>
    <rc><c>N </c><c>   3</c></rc>
    <rc><c>N </c><c>   3</c></rc>
    <rc><c>N </c><c>   3</c></rc>
    <rc><c>N </c><c>   3</c></rc>
    <rc><c>N </c><c>   3</c></rc>
    <rc><c>N </c><c>   3</c></rc>
    <rc><c>N </c><c>   3</c></rc>
    <rc><c>N </c><c>   3</c></rc>
    <rc><c>N </c><c>   3</c></rc>
    <rc><c>N </c><c>   3</c></rc>
    <rc><c>H </c><c>   4</c></rc>
    <rc><c>H </c><c>   4</c></rc>
    <rc><c>H </c><c>   4</c></rc>
    <rc><c>H </c><c>   4</c></rc>
    <rc><c>H </c><c>   4</c></rc>
    <rc><c>H </c><c>   4</c></rc>
    <rc><c>H </c><c>   4</c></rc>
    <rc><c>H </c><c>   4</c></rc>
    <rc><c>H </c><c>   4</c></rc>
    <rc><c>H </c><c>   4</c></rc>
    <rc><c>H </c><c>   4</c></rc>
    <rc><c>H </c><c>   4</c></rc>
   </set>
  </array>
  <array name="atomtypes" >
   <dimension dim="1">type</dimension>
   <field type="int">atomspertype</field>
   <field type="string">element</field>
   <field>mass</field>
   <field>valence</field>
   <field type="string">pseudopotential</field>
   <set>
    <rc><c>  42</c><c>C </c><c>     12.01100000</c><c>      4.00000000</c><c>  PAW_PBE C 08Apr2002                   </c></rc>
    <rc><c>  24</c><c>O </c><c>     16.00000000</c><c>      6.00000000</c><c>  PAW_PBE O 08Apr2002                   </c></rc>
    <rc><c>  18</c><c>N </c><c>     14.00100000</c><c>      5.00000000</c><c>  PAW_PBE N 08Apr2002                   </c></rc>
    <rc><c>  12</c><c>H </c><c>      1.00000000</c><c>      1.00000000</c><c>  PAW_PBE H 15Jun2001                   </c></rc>
   </set>
  </array>
 </atominfo>
 <structure name="initialpos" >
  <crystal>
   <varray name="basis" >
    <v>      22.13377868       0.03810442       0.00000000 </v>
    <v>     -11.03416360      19.13265612       0.00000000 </v>
    <v>       0.00000000       0.00000000      20.00000000 </v>
   </varray>
   <i name="volume">   8477.96853128 </i>
   <varray name="rec_basis" >
    <v>       0.04513500       0.02603021       0.00000000 </v>
    <v>      -0.00008989       0.05221482       0.00000000 </v>
    <v>       0.00000000       0.00000000       0.05000000 </v>
   </varray>
  </crystal>
  <varray name="positions" >
   <v>       0.08942800       0.59553462       0.50737215 </v>
   <v>       0.16169909       0.63267155       0.50859577 </v>
   <v>       0.16271107       0.52446482       0.49932091 </v>
   <v>       0.09049695       0.48850152       0.49932841 </v>
   <v>       0.05066062       0.52212845       0.50319266 </v>
   <v>       0.27617586       0.63617938       0.50506669 </v>
   <v>       0.19918586       0.59728385       0.50435529 </v>
   <v>       0.37885519       0.63660576       0.50563346 </v>
   <v>       0.37811730       0.73893846       0.50514203 </v>
   <v>       0.64493553       0.37163838       0.50975026 </v>
   <v>       0.74686992       0.37149860       0.50876087 </v>
   <v>       0.64499343       0.26940693       0.50766761 </v>
   <v>       0.52494205       0.92524645       0.50659295 </v>
   <v>       0.48927630       0.85287051       0.50742707 </v>
   <v>       0.60597752       0.19156303       0.50696286 </v>
   <v>       0.59706094       0.15410925       0.56568745 </v>
   <v>       0.55852374       0.08152649       0.56462350 </v>
   <v>       0.41962350       0.49012420       0.50975406 </v>
   <v>       0.38247985       0.52546096       0.51007873 </v>
   <v>       0.60604665       0.41065378       0.50946538 </v>
   <v>       0.58005111       0.42214870       0.56857273 </v>
   <v>       0.54527514       0.46005047       0.56714555 </v>
   <v>       0.82452543       0.41011013       0.50759014 </v>
   <v>       0.86254256       0.43663092       0.56629942 </v>
   <v>       0.93497233       0.47058486       0.56425956 </v>
   <v>       0.41648877       0.81608176       0.50515343 </v>
   <v>       0.38079100       0.85340033       0.50291112 </v>
   <v>       0.41766277       0.92579568       0.50353902 </v>
   <v>       0.49103550       0.96489208       0.50497819 </v>
   <v>       0.53039142       0.04295965       0.50553617 </v>
   <v>       0.54247536       0.08301575       0.44715238 </v>
   <v>       0.57772017       0.15560626       0.44750718 </v>
   <v>       0.41778393       0.59831181       0.50614362 </v>
   <v>       0.49054768       0.63439342       0.50264209 </v>
   <v>       0.52651319       0.59792214       0.50357930 </v>
   <v>       0.49294586       0.52446756       0.50680593 </v>
   <v>       0.53220075       0.48555691       0.50760092 </v>
   <v>       0.55792513       0.47109839       0.44896489 </v>
   <v>       0.59527991       0.43583064       0.44941984 </v>
   <v>       0.97276775       0.48297084       0.50437855 </v>
   <v>       0.93211403       0.45701641       0.44613554 </v>
   <v>       0.85970893       0.41977381       0.44727907 </v>
   <v>       0.08750477       0.69706495       0.53386746 </v>
   <v>       0.99393343       0.37717906       0.51190718 </v>
   <v>       0.99319898       0.61012046       0.48965226 </v>
   <v>       0.09140113       0.38608603       0.47450836 </v>
   <v>       0.31762860       0.38661748       0.53350050 </v>
   <v>       0.40629151       0.37956560       0.49315107 </v>
   <v>       0.40480195       0.02327428       0.52060105 </v>
   <v>       0.31471652       0.92685015       0.48355531 </v>
   <v>       0.50048817       0.98388513       0.63358576 </v>
   <v>       0.62830444       0.92590068       0.52916896 </v>
   <v>       0.58588489       0.08000384       0.67673506 </v>
   <v>       0.63515735       0.02090960       0.48660246 </v>
   <v>       0.50723513       0.52002582       0.63547357 </v>
   <v>       0.52023535       0.43639667       0.68025432 </v>
   <v>       0.03226617       0.50494315       0.63242671 </v>
   <v>       0.93842466       0.49853912       0.67682322 </v>
   <v>       0.51785108       0.08527172       0.33434749 </v>
   <v>       0.49941427       0.98586661       0.37703509 </v>
   <v>       0.63728501       0.61175012       0.51789175 </v>
   <v>       0.57852408       0.48882666       0.33456574 </v>
   <v>       0.62924602       0.70125760       0.48120015 </v>
   <v>       0.50227220       0.51281769       0.37931448 </v>
   <v>       0.92829928       0.43454222       0.33209734 </v>
   <v>       0.02841399       0.51240547       0.37544133 </v>
   <v>       0.05394748       0.63741131       0.51073223 </v>
   <v>       0.05604341       0.41140650       0.49483023 </v>
   <v>       0.30895694       0.59880740       0.50563828 </v>
   <v>       0.30817520       0.70625086       0.50503088 </v>
   <v>       0.41594566       0.70666738       0.50516453 </v>
   <v>       0.71482343       0.40953868       0.51055783 </v>
   <v>       0.71487327       0.30147770       0.50724791 </v>
   <v>       0.60714123       0.30163773       0.50838048 </v>
   <v>       0.54766896       0.04574382       0.62987398 </v>
   <v>       0.60200462       0.96000436       0.50769527 </v>
   <v>       0.52233555       0.47296162       0.63251714 </v>
   <v>       0.37801119       0.41289799       0.51251114 </v>
   <v>       0.97137706       0.49329959       0.62940795 </v>
   <v>       0.51790315       0.04884457       0.38123885 </v>
   <v>       0.37585941       0.96130372       0.50236426 </v>
   <v>       0.54553051       0.49269303       0.38266552 </v>
   <v>       0.60350243       0.64022356       0.50056237 </v>
   <v>       0.96540298       0.46870683       0.37957610 </v>
   <v>       0.18860054       0.68929309       0.51274577 </v>
   <v>       0.19043914       0.49547574       0.49562917 </v>
   <v>       0.32590468       0.49591833       0.51313306 </v>
   <v>       0.32415525       0.82623340       0.50096565 </v>
   <v>       0.51844977       0.82525370       0.50959021 </v>
   <v>       0.61856417       0.18007278       0.61318409 </v>
   <v>       0.58675104       0.40290328       0.61654251 </v>
   <v>       0.83717011       0.43070339       0.61443032 </v>
   <v>       0.58325930       0.18280615       0.40052370 </v>
   <v>       0.61462389       0.42792588       0.40205479 </v>
   <v>       0.51950331       0.69108489       0.49933754 </v>
   <v>       0.83200421       0.39975311       0.40025797 </v>
  </varray>
 </structure>
 <calculation>
  <scstep>
   <time name="dav">  170.70  172.14</time>
   <time name="total">  170.86  172.31</time>
   <energy>
    <i name="alphaZ">     89.63088734 </i>
    <i name="ewald">  54238.95313038 </i>
    <i name="hartreedc"> -71971.96652334 </i>
    <i name="XCdc">   1649.62264865 </i>
    <i name="pawpsdc">  38640.26567587 </i>
    <i name="pawaedc"> -38739.36726108 </i>
    <i name="eentropy">     -0.00000000 </i>
    <i name="bandstr">  -6070.47784004 </i>
    <i name="atom">  21468.25258931 </i>
    <i name="e_fr_energy">   -695.08669290 </i>
    <i name="e_wo_entrp">   -695.08669290 </i>
    <i name="e_0_energy">   -695.08669290 </i>
   </energy>
  </scstep>
  <scstep>
   <time name="dav">  188.37  189.95</time>
   <time name="total">  188.38  189.97</time>
   <energy>
    <i name="e_fr_energy">   -696.20064837 </i>
    <i name="e_wo_entrp">   -696.20064837 </i>
    <i name="e_0_energy">   -696.20064837 </i>
   </energy>
  </scstep>
  <scstep>
   <time name="dav">  215.45  217.24</time>
   <time name="total">  215.46  217.25</time>
   <energy>
    <i name="e_fr_energy">   -696.23001615 </i>
    <i name="e_wo_entrp">   -696.23001615 </i>
    <i name="e_0_energy">   -696.23001615 </i>
   </energy>
  </scstep>
  <scstep>
   <time name="dav">  186.30  187.81</time>
   <time name="total">  186.31  187.83</time>
   <energy>
    <i name="e_fr_energy">   -696.23061721 </i>
    <i name="e_wo_entrp">   -696.23061721 </i>
    <i name="e_0_energy">   -696.23061721 </i>
   </energy>
  </scstep>
  <scstep>
   <time name="dav">  180.53  182.02</time>
   <time name="total">  180.54  182.03</time>
   <energy>
    <i name="e_fr_energy">   -696.23064620 </i>
    <i name="e_wo_entrp">   -696.23064620 </i>
    <i name="e_0_energy">   -696.23064620 </i>
   </energy>
  </scstep>
  <scstep>
   <time name="dav">  140.71  141.89</time>
   <time name="total">  140.73  141.91</time>
   <energy>
    <i name="alphaZ">     89.63088734 </i>
    <i name="ewald">  54238.95313038 </i>
    <i name="hartreedc"> -71971.96652334 </i>
    <i name="XCdc">   1649.62264865 </i>
    <i name="pawpsdc">  38640.26567587 </i>
    <i name="pawaedc"> -38739.36726108 </i>
    <i name="eentropy">     -0.00000000 </i>
    <i name="bandstr">  -6071.62179440 </i>
    <i name="atom">  21468.25258931 </i>
    <i name="e_fr_energy">   -696.23064726 </i>
    <i name="e_wo_entrp">   -696.23064726 </i>
    <i name="e_0_energy">   -696.23064726 </i>
   </energy>
  </scstep>
  <structure>
   <crystal>
    <varray name="basis" >
     <v>      22.13377868       0.03810442       0.00000000 </v>
     <v>     -11.03416360      19.13265612       0.00000000 </v>
     <v>       0.00000000       0.00000000      20.00000000 </v>
    </varray>
    <i name="volume">   8477.96853128 </i>
    <varray name="rec_basis" >
     <v>       0.04513500       0.02603021       0.00000000 </v>
     <v>      -0.00008989       0.05221482       0.00000000 </v>
     <v>       0.00000000       0.00000000       0.05000000 </v>
    </varray>
   </crystal>
   <varray name="positions" >
    <v>       0.08942800       0.59553462       0.50737215 </v>
    <v>       0.16169909       0.63267155       0.50859577 </v>
    <v>       0.16271107       0.52446482       0.49932091 </v>
    <v>       0.09049695       0.48850152       0.49932841 </v>
    <v>       0.05066062       0.52212845       0.50319266 </v>
    <v>       0.27617586       0.63617938       0.50506669 </v>
    <v>       0.19918586       0.59728385       0.50435529 </v>
    <v>       0.37885519       0.63660576       0.50563346 </v>
    <v>       0.37811730       0.73893846       0.50514203 </v>
    <v>       0.64493553       0.37163838       0.50975026 </v>
    <v>       0.74686992       0.37149860       0.50876087 </v>
    <v>       0.64499343       0.26940693       0.50766761 </v>
    <v>       0.52494205       0.92524645       0.50659295 </v>
    <v>       0.48927630       0.85287051       0.50742707 </v>
    <v>       0.60597752       0.19156303       0.50696286 </v>
    <v>       0.59706094       0.15410925       0.56568745 </v>
    <v>       0.55852374       0.08152649       0.56462350 </v>
    <v>       0.41962350       0.49012420       0.50975406 </v>
    <v>       0.38247985       0.52546096       0.51007873 </v>
    <v>       0.60604665       0.41065378       0.50946538 </v>
    <v>       0.58005111       0.42214870       0.56857273 </v>
    <v>       0.54527514       0.46005047       0.56714555 </v>
    <v>       0.82452543       0.41011013       0.50759014 </v>
    <v>       0.86254256       0.43663092       0.56629942 </v>
    <v>       0.93497233       0.47058486       0.56425956 </v>
    <v>       0.41648877       0.81608176       0.50515343 </v>
    <v>       0.38079100       0.85340033       0.50291112 </v>
    <v>       0.41766277       0.92579568       0.50353902 </v>
    <v>       0.49103550       0.96489208       0.50497819 </v>
    <v>       0.53039142       0.04295965       0.50553617 </v>
    <v>       0.54247536       0.08301575       0.44715238 </v>
    <v>       0.57772017       0.15560626       0.44750718 </v>
    <v>       0.41778393       0.59831181       0.50614362 </v>
    <v>       0.49054768       0.63439342       0.50264209 </v>
    <v>       0.52651319       0.59792214       0.50357930 </v>
    <v>       0.49294586       0.52446756       0.50680593 </v>
    <v>       0.53220075       0.48555691       0.50760092 </v>
    <v>       0.55792513       0.47109839       0.44896489 </v>
    <v>       0.59527991       0.43583064       0.44941984 </v>
    <v>       0.97276775       0.48297084       0.50437855 </v>
    <v>       0.93211403       0.45701641       0.44613554 </v>
    <v>       0.85970893       0.41977381       0.44727907 </v>
    <v>       0.08750477       0.69706495       0.53386746 </v>
    <v>       0.99393343       0.37717906       0.51190718 </v>
    <v>       0.99319898       0.61012046       0.48965226 </v>
    <v>       0.09140113       0.38608603       0.47450836 </v>
    <v>       0.31762860       0.38661748       0.53350050 </v>
    <v>       0.40629151       0.37956560       0.49315107 </v>
    <v>       0.40480195       0.02327428       0.52060105 </v>
    <v>       0.31471652       0.92685015       0.48355531 </v>
    <v>       0.50048817       0.98388513       0.63358576 </v>
    <v>       0.62830444       0.92590068       0.52916896 </v>
    <v>       0.58588489       0.08000384       0.67673506 </v>
    <v>       0.63515735       0.02090960       0.48660246 </v>
    <v>       0.50723513       0.52002582       0.63547357 </v>
    <v>       0.52023535       0.43639667       0.68025432 </v>
    <v>       0.03226617       0.50494315       0.63242671 </v>
    <v>       0.93842466       0.49853912       0.67682322 </v>
    <v>       0.51785108       0.08527172       0.33434749 </v>
    <v>       0.49941427       0.98586661       0.37703509 </v>
    <v>       0.63728501       0.61175012       0.51789175 </v>
    <v>       0.57852408       0.48882666       0.33456574 </v>
    <v>       0.62924602       0.70125760       0.48120015 </v>
    <v>       0.50227220       0.51281769       0.37931448 </v>
    <v>       0.92829928       0.43454222       0.33209734 </v>
    <v>       0.02841399       0.51240547       0.37544133 </v>
    <v>       0.05394748       0.63741131       0.51073223 </v>
    <v>       0.05604341       0.41140650       0.49483023 </v>
    <v>       0.30895694       0.59880740       0.50563828 </v>
    <v>       0.30817520       0.70625086       0.50503088 </v>
    <v>       0.41594566       0.70666738       0.50516453 </v>
    <v>       0.71482343       0.40953868       0.51055783 </v>
    <v>       0.71487327       0.30147770       0.50724791 </v>
    <v>       0.60714123       0.30163773       0.50838048 </v>
    <v>       0.54766896       0.04574382       0.62987398 </v>
    <v>       0.60200462       0.96000436       0.50769527 </v>
    <v>       0.52233555       0.47296162       0.63251714 </v>
    <v>       0.37801119       0.41289799       0.51251114 </v>
    <v>       0.97137706       0.49329959       0.62940795 </v>
    <v>       0.51790315       0.04884457       0.38123885 </v>
    <v>       0.37585941       0.96130372       0.50236426 </v>
    <v>       0.54553051       0.49269303       0.38266552 </v>
    <v>       0.60350243       0.64022356       0.50056237 </v>
    <v>       0.96540298       0.46870683       0.37957610 </v>
    <v>       0.18860054       0.68929309       0.51274577 </v>
    <v>       0.19043914       0.49547574       0.49562917 </v>
    <v>       0.32590468       0.49591833       0.51313306 </v>
    <v>       0.32415525       0.82623340       0.50096565 </v>
    <v>       0.51844977       0.82525370       0.50959021 </v>
    <v>       0.61856417       0.18007278       0.61318409 </v>
    <v>       0.58675104       0.40290328       0.61654251 </v>
    <v>       0.83717011       0.43070339       0.61443032 </v>
    <v>       0.58325930       0.18280615       0.40052370 </v>
    <v>       0.61462389       0.42792588       0.40205479 </v>
    <v>       0.51950331       0.69108489       0.49933754 </v>
    <v>       0.83200421       0.39975311       0.40025797 </v>
   </varray>
  </structure>
  <varray name="forces" >
   <v>      -0.00105286       0.00083374      -0.00233320 </v>
   <v>      -0.00118168       0.00131644       0.00101775 </v>
   <v>      -0.00038382      -0.00146887      -0.00074612 </v>
   <v>       0.00121042       0.00090258       0.00087150 </v>
   <v>       0.00178127       0.00198176       0.00055010 </v>
   <v>      -0.00186544      -0.00205391      -0.00089579 </v>
   <v>      -0.00053533       0.00053619       0.00074056 </v>
   <v>       0.00058384       0.00024140       0.00023227 </v>
   <v>      -0.00089959      -0.00197181      -0.00264890 </v>
   <v>      -0.00067250       0.00678948      -0.00058536 </v>
   <v>      -0.00157834       0.00526144       0.00154816 </v>
   <v>      -0.00279504       0.00538584       0.00009565 </v>
   <v>      -0.00337126       0.00117818      -0.00174174 </v>
   <v>       0.00125889       0.00063827      -0.00145031 </v>
   <v>      -0.00151252      -0.00103339      -0.00181193 </v>
   <v>       0.00108168      -0.00139104       0.00057523 </v>
   <v>       0.00081461       0.00004538      -0.00246072 </v>
   <v>      -0.00122237       0.00166303      -0.00066449 </v>
   <v>      -0.00201154       0.00112591      -0.00112219 </v>
   <v>      -0.00186279       0.00256748      -0.00146212 </v>
   <v>      -0.00018478       0.00062656       0.00111222 </v>
   <v>      -0.00457516       0.00025582      -0.00044755 </v>
   <v>       0.00009158      -0.00090480      -0.00021370 </v>
   <v>       0.00031064       0.00075192      -0.00075327 </v>
   <v>      -0.00162234      -0.00036286       0.00254157 </v>
   <v>      -0.00027406       0.00034370      -0.00247916 </v>
   <v>       0.00143183      -0.00322182       0.00019855 </v>
   <v>       0.00092612       0.00157274      -0.00124042 </v>
   <v>       0.00123800      -0.00026369       0.00015875 </v>
   <v>      -0.00069770      -0.00141165      -0.00107669 </v>
   <v>      -0.00011712      -0.00136323       0.00067463 </v>
   <v>      -0.00103991      -0.00164141       0.00167152 </v>
   <v>       0.00047492      -0.00124038       0.00083026 </v>
   <v>      -0.00193089      -0.00102770      -0.00103844 </v>
   <v>      -0.00170612       0.00125516       0.00041514 </v>
   <v>      -0.00217495      -0.00017809      -0.00008675 </v>
   <v>       0.00075831      -0.00148094       0.00094645 </v>
   <v>      -0.00179285       0.00001072      -0.00119740 </v>
   <v>       0.00038641       0.00072933      -0.00065215 </v>
   <v>      -0.00042310       0.00077836       0.00308267 </v>
   <v>      -0.00100760       0.00137089      -0.00007355 </v>
   <v>       0.00078219       0.00036372       0.00163777 </v>
   <v>      -0.00128781       0.00338548      -0.00281329 </v>
   <v>       0.00193049      -0.00005958       0.00524475 </v>
   <v>       0.00461089      -0.00155871       0.00166384 </v>
   <v>       0.00169830      -0.00214833       0.00230013 </v>
   <v>       0.00199737       0.00030978       0.00032300 </v>
   <v>      -0.00015002       0.00251710      -0.00073761 </v>
   <v>      -0.00110218      -0.00383312      -0.00111471 </v>
   <v>       0.00337347      -0.00014480       0.00218644 </v>
   <v>       0.00282117      -0.00095277      -0.00139272 </v>
   <v>      -0.00296808       0.00242789      -0.00137202 </v>
   <v>      -0.00172180      -0.00184949      -0.00359527 </v>
   <v>       0.00024512       0.00239304      -0.00210862 </v>
   <v>       0.00091358      -0.00106171       0.00186914 </v>
   <v>      -0.00213683       0.00241164      -0.00256663 </v>
   <v>      -0.00140262      -0.00122500       0.00034429 </v>
   <v>      -0.00468864      -0.00008154       0.00495905 </v>
   <v>      -0.00120185       0.00069900       0.00063229 </v>
   <v>      -0.00053351       0.00466755       0.00040708 </v>
   <v>      -0.00259103       0.00375095      -0.00064492 </v>
   <v>       0.00084703       0.00175238      -0.00044368 </v>
   <v>       0.00177446      -0.00102420       0.00321228 </v>
   <v>       0.00043200      -0.00070357      -0.00057527 </v>
   <v>      -0.00198092       0.00363949       0.00016394 </v>
   <v>       0.00179773      -0.00443559      -0.00060450 </v>
   <v>      -0.00333764      -0.00471461      -0.00313838 </v>
   <v>       0.00228233      -0.00228464       0.00463861 </v>
   <v>      -0.00001378       0.00417179      -0.00133012 </v>
   <v>       0.00125848       0.00251158       0.00177276 </v>
   <v>      -0.00051775      -0.00393272      -0.00004301 </v>
   <v>       0.00295369      -0.00250028       0.00144302 </v>
   <v>       0.00060073      -0.00554483       0.00193999 </v>
   <v>       0.00228605      -0.00293245      -0.00104365 </v>
   <v>       0.00282167       0.00323647       0.00123648 </v>
   <v>       0.00137143      -0.00054499      -0.00272934 </v>
   <v>       0.00310855      -0.00297748      -0.00047230 </v>
   <v>      -0.00110562      -0.00178860       0.00328997 </v>
   <v>       0.00267757      -0.00105187      -0.00427724 </v>
   <v>      -0.00021150      -0.00421488      -0.00001771 </v>
   <v>       0.00623932       0.00310990       0.00204738 </v>
   <v>      -0.00234160      -0.00318025       0.00132641 </v>
   <v>       0.00385554       0.00001783      -0.00002877 </v>
   <v>       0.00634480      -0.00263804       0.00306573 </v>
   <v>      -0.00032729      -0.00030743      -0.00340384 </v>
   <v>      -0.00211756       0.00076950       0.00147766 </v>
   <v>      -0.00138076      -0.00141038      -0.00036227 </v>
   <v>      -0.00193847       0.00000826      -0.00078313 </v>
   <v>       0.00192897      -0.00204451      -0.00086198 </v>
   <v>      -0.00046842      -0.00003126      -0.00034296 </v>
   <v>      -0.00013976       0.00089625      -0.00132234 </v>
   <v>       0.00060956      -0.00011172       0.00075505 </v>
   <v>      -0.00022778      -0.00085069      -0.00216716 </v>
   <v>      -0.00069813      -0.00018020      -0.00052335 </v>
   <v>       0.00116896      -0.00049426       0.00040822 </v>
   <v>       0.00000305       0.00262813       0.00239046 </v>
  </varray>
  <varray name="stress" >
   <v>       0.00608307       0.00476304      -0.00952237 </v>
   <v>       0.00476305       0.01363038       0.00803028 </v>
   <v>      -0.00952237       0.00803028      -0.36587112 </v>
  </varray>
  <energy>
   <i name="e_fr_energy">   -698.89724846 </i>
   <i name="e_wo_entrp">   -698.89724846 </i>
   <i name="e_0_energy">     -0.00000000 </i>
  </energy>
  <time name="totalsc"> 1227.51 1238.44</time>
  <eigenvalues>
   <array>
    <dimension dim="1">band</dimension>
    <dimension dim="2">kpoint</dimension>
    <dimension dim="3">spin</dimension>
    <field>eigene</field>
    <field>occ</field>
    <set>
     <set comment="spin 1">
      <set comment="kpoint 1">
       <r>  -31.0797    1.0000 </r>
       <r>  -31.0761    1.0000 </r>
       <r>  -31.0747    1.0000 </r>
       <r>  -31.0693    1.0000 </r>
       <r>  -31.0655    1.0000 </r>
       <r>  -31.0627    1.0000 </r>
       <r>  -30.9971    1.0000 </r>
       <r>  -30.9943    1.0000 </r>
       <r>  -30.9899    1.0000 </r>
       <r>  -30.9889    1.0000 </r>
       <r>  -30.9851    1.0000 </r>
       <r>  -30.9840    1.0000 </r>
       <r>  -26.6930    1.0000 </r>
       <r>  -26.6904    1.0000 </r>
       <r>  -26.6862    1.0000 </r>
       <r>  -26.6786    1.0000 </r>
       <r>  -26.6727    1.0000 </r>
       <r>  -26.6720    1.0000 </r>
       <r>  -26.6140    1.0000 </r>
       <r>  -26.6082    1.0000 </r>
       <r>  -26.6052    1.0000 </r>
       <r>  -26.6025    1.0000 </r>
       <r>  -26.5992    1.0000 </r>
       <r>  -26.5967    1.0000 </r>
       <r>  -26.5227    1.0000 </r>
       <r>  -26.2252    1.0000 </r>
       <r>  -23.6313    1.0000 </r>
       <r>  -23.6290    1.0000 </r>
       <r>  -23.4372    1.0000 </r>
       <r>  -23.4351    1.0000 </r>
       <r>  -23.3322    1.0000 </r>
       <r>  -23.1356    1.0000 </r>
       <r>  -23.1337    1.0000 </r>
       <r>  -22.7863    1.0000 </r>
       <r>  -22.6670    1.0000 </r>
       <r>  -22.6645    1.0000 </r>
       <r>  -21.0242    1.0000 </r>
       <r>  -21.0240    1.0000 </r>
       <r>  -21.0215    1.0000 </r>
       <r>  -20.9588    1.0000 </r>
       <r>  -20.9575    1.0000 </r>
       <r>  -20.9355    1.0000 </r>
       <r>  -20.8983    1.0000 </r>
       <r>  -20.8959    1.0000 </r>
       <r>  -20.8510    1.0000 </r>
       <r>  -20.2768    1.0000 </r>
       <r>  -20.2717    1.0000 </r>
       <r>  -20.0954    1.0000 </r>
       <r>  -18.7938    1.0000 </r>
       <r>  -18.7910    1.0000 </r>
       <r>  -18.7189    1.0000 </r>
       <r>  -18.1573    1.0000 </r>
       <r>  -18.1538    1.0000 </r>
       <r>  -18.1158    1.0000 </r>
       <r>  -18.1106    1.0000 </r>
       <r>  -17.8276    1.0000 </r>
       <r>  -17.8257    1.0000 </r>
       <r>  -17.8146    1.0000 </r>
       <r>  -17.8129    1.0000 </r>
       <r>  -17.7424    1.0000 </r>
       <r>  -17.6176    1.0000 </r>
       <r>  -17.6164    1.0000 </r>
       <r>  -17.2460    1.0000 </r>
       <r>  -17.2451    1.0000 </r>
       <r>  -16.8193    1.0000 </r>
       <r>  -15.9563    1.0000 </r>
       <r>  -15.3132    1.0000 </r>
       <r>  -15.3102    1.0000 </r>
       <r>  -15.0397    1.0000 </r>
       <r>  -14.9653    1.0000 </r>
       <r>  -14.9563    1.0000 </r>
       <r>  -14.9361    1.0000 </r>
       <r>  -14.8947    1.0000 </r>
       <r>  -14.8905    1.0000 </r>
       <r>  -14.7541    1.0000 </r>
       <r>  -14.7503    1.0000 </r>
       <r>  -14.6486    1.0000 </r>
       <r>  -14.3834    1.0000 </r>
       <r>  -14.3418    1.0000 </r>
       <r>  -14.2729    1.0000 </r>
       <r>  -14.2717    1.0000 </r>
       <r>  -14.1422    1.0000 </r>
       <r>  -13.7273    1.0000 </r>
       <r>  -13.7228    1.0000 </r>
       <r>  -13.6485    1.0000 </r>
       <r>  -13.6300    1.0000 </r>
       <r>  -13.6229    1.0000 </r>
       <r>  -13.4691    1.0000 </r>
       <r>  -13.4645    1.0000 </r>
       <r>  -13.4643    1.0000 </r>
       <r>  -13.4392    1.0000 </r>
       <r>  -13.4377    1.0000 </r>
       <r>  -13.4228    1.0000 </r>
       <r>  -13.3604    1.0000 </r>
       <r>  -13.3031    1.0000 </r>
       <r>  -13.2994    1.0000 </r>
       <r>  -13.2922    1.0000 </r>
       <r>  -13.2589    1.0000 </r>
       <r>  -13.2339    1.0000 </r>
       <r>  -13.1948    1.0000 </r>
       <r>  -13.1909    1.0000 </r>
       <r>  -13.1534    1.0000 </r>
       <r>  -13.1478    1.0000 </r>
       <r>  -13.1310    1.0000 </r>
       <r>  -13.1207    1.0000 </r>
       <r>  -13.1159    1.0000 </r>
       <r>  -13.0545    1.0000 </r>
       <r>  -13.0525    1.0000 </r>
       <r>  -12.9053    1.0000 </r>
       <r>  -12.9023    1.0000 </r>
       <r>  -12.8493    1.0000 </r>
       <r>  -12.7744    1.0000 </r>
       <r>  -12.6674    1.0000 </r>
       <r>  -12.6190    1.0000 </r>
       <r>  -12.6156    1.0000 </r>
       <r>  -12.6031    1.0000 </r>
       <r>  -12.5231    1.0000 </r>
       <r>  -12.5225    1.0000 </r>
       <r>  -12.5157    1.0000 </r>
       <r>  -12.3804    1.0000 </r>
       <r>  -12.2538    1.0000 </r>
       <r>  -12.2483    1.0000 </r>
       <r>  -12.2335    1.0000 </r>
       <r>  -12.2297    1.0000 </r>
       <r>  -12.0530    1.0000 </r>
       <r>  -12.0296    1.0000 </r>
       <r>  -12.0231    1.0000 </r>
       <r>  -11.8538    1.0000 </r>
       <r>  -11.5000    1.0000 </r>
       <r>  -11.4372    1.0000 </r>
       <r>  -11.4354    1.0000 </r>
       <r>  -11.2365    1.0000 </r>
       <r>  -10.5176    1.0000 </r>
       <r>  -10.5108    1.0000 </r>
       <r>  -10.3963    1.0000 </r>
       <r>  -10.3946    1.0000 </r>
       <r>  -10.3094    1.0000 </r>
       <r>  -10.2990    1.0000 </r>
       <r>  -10.2487    1.0000 </r>
       <r>  -10.2336    1.0000 </r>
       <r>  -10.2096    1.0000 </r>
       <r>  -10.1560    1.0000 </r>
       <r>  -10.1512    1.0000 </r>
       <r>   -9.9742    1.0000 </r>
       <r>   -9.9733    1.0000 </r>
       <r>   -9.9561    1.0000 </r>
       <r>   -9.8135    1.0000 </r>
       <r>   -9.7986    1.0000 </r>
       <r>   -9.7961    1.0000 </r>
       <r>   -9.5408    1.0000 </r>
       <r>   -9.4959    1.0000 </r>
       <r>   -9.1557    1.0000 </r>
       <r>   -9.1510    1.0000 </r>
       <r>   -8.8552    1.0000 </r>
       <r>   -8.8453    1.0000 </r>
       <r>   -8.1104    1.0000 </r>
       <r>   -8.1006    1.0000 </r>
       <r>   -8.0949    1.0000 </r>
       <r>   -8.0679    1.0000 </r>
       <r>   -8.0586    1.0000 </r>
       <r>   -8.0562    1.0000 </r>
       <r>   -8.0101    1.0000 </r>
       <r>   -7.9410    1.0000 </r>
       <r>   -7.9404    1.0000 </r>
       <r>   -7.9399    1.0000 </r>
       <r>   -7.9127    1.0000 </r>
       <r>   -7.9097    1.0000 </r>
       <r>   -7.8892    1.0000 </r>
       <r>   -7.8581    1.0000 </r>
       <r>   -7.8558    1.0000 </r>
       <r>   -7.6808    1.0000 </r>
       <r>   -7.6763    1.0000 </r>
       <r>   -7.6712    1.0000 </r>
       <r>   -7.6659    1.0000 </r>
       <r>   -7.6630    1.0000 </r>
       <r>   -7.6553    1.0000 </r>
       <r>   -7.5783    1.0000 </r>
       <r>   -7.5645    1.0000 </r>
       <r>   -7.5597    1.0000 </r>
       <r>   -7.5511    1.0000 </r>
       <r>   -7.5413    1.0000 </r>
       <r>   -7.5351    1.0000 </r>
       <r>   -7.4522    1.0000 </r>
       <r>   -7.4508    1.0000 </r>
       <r>   -7.4494    1.0000 </r>
       <r>   -7.1759    1.0000 </r>
       <r>   -7.1614    1.0000 </r>
       <r>   -7.1597    1.0000 </r>
       <r>   -7.1057    1.0000 </r>
       <r>   -7.1007    1.0000 </r>
       <r>   -7.0813    1.0000 </r>
       <r>   -7.0145    1.0000 </r>
       <r>   -7.0084    1.0000 </r>
       <r>   -6.9949    1.0000 </r>
       <r>   -6.9050    1.0000 </r>
       <r>   -6.8994    1.0000 </r>
       <r>   -6.8959    1.0000 </r>
       <r>   -6.8883    1.0000 </r>
       <r>   -6.8763    1.0000 </r>
       <r>   -6.7621    1.0000 </r>
       <r>   -6.7563    1.0000 </r>
       <r>   -6.6389    1.0000 </r>
       <r>   -6.6292    1.0000 </r>
       <r>   -6.6156    1.0000 </r>
       <r>   -6.4770    1.0000 </r>
       <r>   -6.4738    1.0000 </r>
       <r>   -6.4649    1.0000 </r>
       <r>   -3.9277    0.0000 </r>
       <r>   -3.9221    0.0000 </r>
       <r>   -3.8887    0.0000 </r>
       <r>   -3.8502    0.0000 </r>
       <r>   -3.8480    0.0000 </r>
       <r>   -3.7601    0.0000 </r>
       <r>   -3.7200    0.0000 </r>
       <r>   -3.7158    0.0000 </r>
       <r>   -3.7042    0.0000 </r>
       <r>   -3.6681    0.0000 </r>
       <r>   -3.6596    0.0000 </r>
       <r>   -3.5818    0.0000 </r>
       <r>   -3.3129    0.0000 </r>
       <r>   -3.3110    0.0000 </r>
       <r>   -3.1814    0.0000 </r>
       <r>   -3.1701    0.0000 </r>
       <r>   -2.3391    0.0000 </r>
       <r>   -2.1363    0.0000 </r>
       <r>   -2.1240    0.0000 </r>
       <r>   -1.9340    0.0000 </r>
       <r>   -1.6257    0.0000 </r>
       <r>   -1.6200    0.0000 </r>
       <r>   -1.6101    0.0000 </r>
       <r>   -1.1896    0.0000 </r>
       <r>   -1.1765    0.0000 </r>
       <r>   -1.1524    0.0000 </r>
       <r>   -0.8794    0.0000 </r>
       <r>   -0.8741    0.0000 </r>
       <r>   -0.5782    0.0000 </r>
       <r>   -0.2937    0.0000 </r>
       <r>    0.0145    0.0000 </r>
       <r>    0.1590    0.0000 </r>
       <r>    0.1595    0.0000 </r>
       <r>    0.2241    0.0000 </r>
       <r>    0.2506    0.0000 </r>
       <r>    0.2513    0.0000 </r>
       <r>    0.4652    0.0000 </r>
       <r>    0.4800    0.0000 </r>
       <r>    0.4834    0.0000 </r>
       <r>    0.6030    0.0000 </r>
       <r>    0.6694    0.0000 </r>
       <r>    0.6889    0.0000 </r>
       <r>    0.6917    0.0000 </r>
       <r>    0.8365    0.0000 </r>
       <r>    0.8466    0.0000 </r>
       <r>    0.8894    0.0000 </r>
       <r>    0.8911    0.0000 </r>
       <r>    1.0143    0.0000 </r>
       <r>    1.0344    0.0000 </r>
      </set>
      <set comment="kpoint 2">
       <r>  -31.0797    1.0000 </r>
       <r>  -31.0761    1.0000 </r>
       <r>  -31.0747    1.0000 </r>
       <r>  -31.0693    1.0000 </r>
       <r>  -31.0655    1.0000 </r>
       <r>  -31.0627    1.0000 </r>
       <r>  -30.9971    1.0000 </r>
       <r>  -30.9943    1.0000 </r>
       <r>  -30.9899    1.0000 </r>
       <r>  -30.9889    1.0000 </r>
       <r>  -30.9851    1.0000 </r>
       <r>  -30.9840    1.0000 </r>
       <r>  -26.6930    1.0000 </r>
       <r>  -26.6904    1.0000 </r>
       <r>  -26.6862    1.0000 </r>
       <r>  -26.6786    1.0000 </r>
       <r>  -26.6727    1.0000 </r>
       <r>  -26.6720    1.0000 </r>
       <r>  -26.6140    1.0000 </r>
       <r>  -26.6082    1.0000 </r>
       <r>  -26.6052    1.0000 </r>
       <r>  -26.6025    1.0000 </r>
       <r>  -26.5992    1.0000 </r>
       <r>  -26.5967    1.0000 </r>
       <r>  -26.5227    1.0000 </r>
       <r>  -26.2252    1.0000 </r>
       <r>  -23.6313    1.0000 </r>
       <r>  -23.6290    1.0000 </r>
       <r>  -23.4374    1.0000 </r>
       <r>  -23.4352    1.0000 </r>
       <r>  -23.3318    1.0000 </r>
       <r>  -23.1357    1.0000 </r>
       <r>  -23.1339    1.0000 </r>
       <r>  -22.7861    1.0000 </r>
       <r>  -22.6670    1.0000 </r>
       <r>  -22.6647    1.0000 </r>
       <r>  -21.0242    1.0000 </r>
       <r>  -21.0241    1.0000 </r>
       <r>  -21.0215    1.0000 </r>
       <r>  -20.9587    1.0000 </r>
       <r>  -20.9575    1.0000 </r>
       <r>  -20.9355    1.0000 </r>
       <r>  -20.8984    1.0000 </r>
       <r>  -20.8959    1.0000 </r>
       <r>  -20.8511    1.0000 </r>
       <r>  -20.2768    1.0000 </r>
       <r>  -20.2714    1.0000 </r>
       <r>  -20.0957    1.0000 </r>
       <r>  -18.7938    1.0000 </r>
       <r>  -18.7908    1.0000 </r>
       <r>  -18.7190    1.0000 </r>
       <r>  -18.1573    1.0000 </r>
       <r>  -18.1537    1.0000 </r>
       <r>  -18.1158    1.0000 </r>
       <r>  -18.1106    1.0000 </r>
       <r>  -17.8275    1.0000 </r>
       <r>  -17.8254    1.0000 </r>
       <r>  -17.8145    1.0000 </r>
       <r>  -17.8129    1.0000 </r>
       <r>  -17.7424    1.0000 </r>
       <r>  -17.6176    1.0000 </r>
       <r>  -17.6164    1.0000 </r>
       <r>  -17.2473    1.0000 </r>
       <r>  -17.2454    1.0000 </r>
       <r>  -16.8173    1.0000 </r>
       <r>  -15.9580    1.0000 </r>
       <r>  -15.3128    1.0000 </r>
       <r>  -15.3093    1.0000 </r>
       <r>  -15.0396    1.0000 </r>
       <r>  -14.9654    1.0000 </r>
       <r>  -14.9563    1.0000 </r>
       <r>  -14.9360    1.0000 </r>
       <r>  -14.8949    1.0000 </r>
       <r>  -14.8907    1.0000 </r>
       <r>  -14.7542    1.0000 </r>
       <r>  -14.7503    1.0000 </r>
       <r>  -14.6486    1.0000 </r>
       <r>  -14.3834    1.0000 </r>
       <r>  -14.3418    1.0000 </r>
       <r>  -14.2729    1.0000 </r>
       <r>  -14.2719    1.0000 </r>
       <r>  -14.1416    1.0000 </r>
       <r>  -13.7273    1.0000 </r>
       <r>  -13.7233    1.0000 </r>
       <r>  -13.6486    1.0000 </r>
       <r>  -13.6300    1.0000 </r>
       <r>  -13.6236    1.0000 </r>
       <r>  -13.4691    1.0000 </r>
       <r>  -13.4645    1.0000 </r>
       <r>  -13.4643    1.0000 </r>
       <r>  -13.4393    1.0000 </r>
       <r>  -13.4377    1.0000 </r>
       <r>  -13.4228    1.0000 </r>
       <r>  -13.3595    1.0000 </r>
       <r>  -13.3031    1.0000 </r>
       <r>  -13.2994    1.0000 </r>
       <r>  -13.2922    1.0000 </r>
       <r>  -13.2589    1.0000 </r>
       <r>  -13.2339    1.0000 </r>
       <r>  -13.1948    1.0000 </r>
       <r>  -13.1909    1.0000 </r>
       <r>  -13.1534    1.0000 </r>
       <r>  -13.1478    1.0000 </r>
       <r>  -13.1310    1.0000 </r>
       <r>  -13.1208    1.0000 </r>
       <r>  -13.1159    1.0000 </r>
       <r>  -13.0545    1.0000 </r>
       <r>  -13.0525    1.0000 </r>
       <r>  -12.9053    1.0000 </r>
       <r>  -12.9023    1.0000 </r>
       <r>  -12.8493    1.0000 </r>
       <r>  -12.7744    1.0000 </r>
       <r>  -12.6674    1.0000 </r>
       <r>  -12.6190    1.0000 </r>
       <r>  -12.6156    1.0000 </r>
       <r>  -12.6031    1.0000 </r>
       <r>  -12.5232    1.0000 </r>
       <r>  -12.5225    1.0000 </r>
       <r>  -12.5158    1.0000 </r>
       <r>  -12.3804    1.0000 </r>
       <r>  -12.2534    1.0000 </r>
       <r>  -12.2482    1.0000 </r>
       <r>  -12.2333    1.0000 </r>
       <r>  -12.2296    1.0000 </r>
       <r>  -12.0530    1.0000 </r>
       <r>  -12.0296    1.0000 </r>
       <r>  -12.0231    1.0000 </r>
       <r>  -11.8538    1.0000 </r>
       <r>  -11.5002    1.0000 </r>
       <r>  -11.4409    1.0000 </r>
       <r>  -11.4356    1.0000 </r>
       <r>  -11.2325    1.0000 </r>
       <r>  -10.5175    1.0000 </r>
       <r>  -10.5108    1.0000 </r>
       <r>  -10.3978    1.0000 </r>
       <r>  -10.3954    1.0000 </r>
       <r>  -10.3095    1.0000 </r>
       <r>  -10.2994    1.0000 </r>
       <r>  -10.2487    1.0000 </r>
       <r>  -10.2335    1.0000 </r>
       <r>  -10.2077    1.0000 </r>
       <r>  -10.1558    1.0000 </r>
       <r>  -10.1509    1.0000 </r>
       <r>   -9.9742    1.0000 </r>
       <r>   -9.9732    1.0000 </r>
       <r>   -9.9561    1.0000 </r>
       <r>   -9.8141    1.0000 </r>
       <r>   -9.7985    1.0000 </r>
       <r>   -9.7962    1.0000 </r>
       <r>   -9.5407    1.0000 </r>
       <r>   -9.4960    1.0000 </r>
       <r>   -9.1556    1.0000 </r>
       <r>   -9.1509    1.0000 </r>
       <r>   -8.8553    1.0000 </r>
       <r>   -8.8453    1.0000 </r>
       <r>   -8.1104    1.0000 </r>
       <r>   -8.1016    1.0000 </r>
       <r>   -8.0938    1.0000 </r>
       <r>   -8.0679    1.0000 </r>
       <r>   -8.0586    1.0000 </r>
       <r>   -8.0562    1.0000 </r>
       <r>   -8.0101    1.0000 </r>
       <r>   -7.9410    1.0000 </r>
       <r>   -7.9404    1.0000 </r>
       <r>   -7.9399    1.0000 </r>
       <r>   -7.9127    1.0000 </r>
       <r>   -7.9097    1.0000 </r>
       <r>   -7.8892    1.0000 </r>
       <r>   -7.8582    1.0000 </r>
       <r>   -7.8558    1.0000 </r>
       <r>   -7.6808    1.0000 </r>
       <r>   -7.6763    1.0000 </r>
       <r>   -7.6712    1.0000 </r>
       <r>   -7.6659    1.0000 </r>
       <r>   -7.6630    1.0000 </r>
       <r>   -7.6553    1.0000 </r>
       <r>   -7.5784    1.0000 </r>
       <r>   -7.5645    1.0000 </r>
       <r>   -7.5596    1.0000 </r>
       <r>   -7.5511    1.0000 </r>
       <r>   -7.5413    1.0000 </r>
       <r>   -7.5350    1.0000 </r>
       <r>   -7.4522    1.0000 </r>
       <r>   -7.4508    1.0000 </r>
       <r>   -7.4494    1.0000 </r>
       <r>   -7.1760    1.0000 </r>
       <r>   -7.1614    1.0000 </r>
       <r>   -7.1596    1.0000 </r>
       <r>   -7.1057    1.0000 </r>
       <r>   -7.1007    1.0000 </r>
       <r>   -7.0813    1.0000 </r>
       <r>   -7.0145    1.0000 </r>
       <r>   -7.0084    1.0000 </r>
       <r>   -6.9949    1.0000 </r>
       <r>   -6.9051    1.0000 </r>
       <r>   -6.8995    1.0000 </r>
       <r>   -6.8958    1.0000 </r>
       <r>   -6.8883    1.0000 </r>
       <r>   -6.8763    1.0000 </r>
       <r>   -6.7621    1.0000 </r>
       <r>   -6.7563    1.0000 </r>
       <r>   -6.6389    1.0000 </r>
       <r>   -6.6292    1.0000 </r>
       <r>   -6.6156    1.0000 </r>
       <r>   -6.4771    1.0000 </r>
       <r>   -6.4738    1.0000 </r>
       <r>   -6.4649    1.0000 </r>
       <r>   -3.9277    0.0000 </r>
       <r>   -3.9221    0.0000 </r>
       <r>   -3.8887    0.0000 </r>
       <r>   -3.8502    0.0000 </r>
       <r>   -3.8479    0.0000 </r>
       <r>   -3.7601    0.0000 </r>
       <r>   -3.7200    0.0000 </r>
       <r>   -3.7158    0.0000 </r>
       <r>   -3.7042    0.0000 </r>
       <r>   -3.6680    0.0000 </r>
       <r>   -3.6595    0.0000 </r>
       <r>   -3.5818    0.0000 </r>
       <r>   -3.3129    0.0000 </r>
       <r>   -3.3110    0.0000 </r>
       <r>   -3.1814    0.0000 </r>
       <r>   -3.1701    0.0000 </r>
       <r>   -2.3392    0.0000 </r>
       <r>   -2.1362    0.0000 </r>
       <r>   -2.1238    0.0000 </r>
       <r>   -1.9342    0.0000 </r>
       <r>   -1.6257    0.0000 </r>
       <r>   -1.6199    0.0000 </r>
       <r>   -1.6100    0.0000 </r>
       <r>   -1.1897    0.0000 </r>
       <r>   -1.1765    0.0000 </r>
       <r>   -1.1524    0.0000 </r>
       <r>   -0.8794    0.0000 </r>
       <r>   -0.8741    0.0000 </r>
       <r>   -0.5782    0.0000 </r>
       <r>   -0.2937    0.0000 </r>
       <r>    0.0146    0.0000 </r>
       <r>    0.1586    0.0000 </r>
       <r>    0.1591    0.0000 </r>
       <r>    0.2251    0.0000 </r>
       <r>    0.2503    0.0000 </r>
       <r>    0.2514    0.0000 </r>
       <r>    0.4652    0.0000 </r>
       <r>    0.4799    0.0000 </r>
       <r>    0.4837    0.0000 </r>
       <r>    0.6031    0.0000 </r>
       <r>    0.6692    0.0000 </r>
       <r>    0.6885    0.0000 </r>
       <r>    0.6915    0.0000 </r>
       <r>    0.8367    0.0000 </r>
       <r>    0.8472    0.0000 </r>
       <r>    0.8890    0.0000 </r>
       <r>    0.8906    0.0000 </r>
       <r>    1.0139    0.0000 </r>
       <r>    1.0348    0.0000 </r>
      </set>
      <set comment="kpoint 3">
       <r>  -31.0797    1.0000 </r>
       <r>  -31.0761    1.0000 </r>
       <r>  -31.0747    1.0000 </r>
       <r>  -31.0693    1.0000 </r>
       <r>  -31.0655    1.0000 </r>
       <r>  -31.0627    1.0000 </r>
       <r>  -30.9971    1.0000 </r>
       <r>  -30.9943    1.0000 </r>
       <r>  -30.9899    1.0000 </r>
       <r>  -30.9889    1.0000 </r>
       <r>  -30.9851    1.0000 </r>
       <r>  -30.9840    1.0000 </r>
       <r>  -26.6930    1.0000 </r>
       <r>  -26.6904    1.0000 </r>
       <r>  -26.6862    1.0000 </r>
       <r>  -26.6786    1.0000 </r>
       <r>  -26.6727    1.0000 </r>
       <r>  -26.6720    1.0000 </r>
       <r>  -26.6140    1.0000 </r>
       <r>  -26.6082    1.0000 </r>
       <r>  -26.6052    1.0000 </r>
       <r>  -26.6025    1.0000 </r>
       <r>  -26.5992    1.0000 </r>
       <r>  -26.5967    1.0000 </r>
       <r>  -26.5227    1.0000 </r>
       <r>  -26.2252    1.0000 </r>
       <r>  -23.6313    1.0000 </r>
       <r>  -23.6289    1.0000 </r>
       <r>  -23.4381    1.0000 </r>
       <r>  -23.4353    1.0000 </r>
       <r>  -23.3306    1.0000 </r>
       <r>  -23.1361    1.0000 </r>
       <r>  -23.1342    1.0000 </r>
       <r>  -22.7854    1.0000 </r>
       <r>  -22.6670    1.0000 </r>
       <r>  -22.6650    1.0000 </r>
       <r>  -21.0242    1.0000 </r>
       <r>  -21.0241    1.0000 </r>
       <r>  -21.0215    1.0000 </r>
       <r>  -20.9586    1.0000 </r>
       <r>  -20.9574    1.0000 </r>
       <r>  -20.9355    1.0000 </r>
       <r>  -20.8984    1.0000 </r>
       <r>  -20.8959    1.0000 </r>
       <r>  -20.8513    1.0000 </r>
       <r>  -20.2768    1.0000 </r>
       <r>  -20.2706    1.0000 </r>
       <r>  -20.0965    1.0000 </r>
       <r>  -18.7938    1.0000 </r>
       <r>  -18.7904    1.0000 </r>
       <r>  -18.7193    1.0000 </r>
       <r>  -18.1573    1.0000 </r>
       <r>  -18.1537    1.0000 </r>
       <r>  -18.1158    1.0000 </r>
       <r>  -18.1108    1.0000 </r>
       <r>  -17.8275    1.0000 </r>
       <r>  -17.8243    1.0000 </r>
       <r>  -17.8145    1.0000 </r>
       <r>  -17.8129    1.0000 </r>
       <r>  -17.7424    1.0000 </r>
       <r>  -17.6177    1.0000 </r>
       <r>  -17.6165    1.0000 </r>
       <r>  -17.2518    1.0000 </r>
       <r>  -17.2455    1.0000 </r>
       <r>  -16.8113    1.0000 </r>
       <r>  -15.9630    1.0000 </r>
       <r>  -15.3122    1.0000 </r>
       <r>  -15.3060    1.0000 </r>
       <r>  -15.0396    1.0000 </r>
       <r>  -14.9655    1.0000 </r>
       <r>  -14.9564    1.0000 </r>
       <r>  -14.9358    1.0000 </r>
       <r>  -14.8956    1.0000 </r>
       <r>  -14.8910    1.0000 </r>
       <r>  -14.7542    1.0000 </r>
       <r>  -14.7505    1.0000 </r>
       <r>  -14.6484    1.0000 </r>
       <r>  -14.3834    1.0000 </r>
       <r>  -14.3417    1.0000 </r>
       <r>  -14.2729    1.0000 </r>
       <r>  -14.2725    1.0000 </r>
[...]
       <r>   -29.0302     0.0000    24.0000 </r>
       <r>   -28.9122     0.0000    24.0000 </r>
       <r>   -28.7941     0.0000    24.0000 </r>
       <r>   -28.6761     0.0000    24.0000 </r>
       <r>   -28.5581     0.0000    24.0000 </r>
       <r>   -28.4400     0.0000    24.0000 </r>
       <r>   -28.3220     0.0000    24.0000 </r>
       <r>   -28.2040     0.0000    24.0000 </r>
       <r>   -28.0859     0.0000    24.0000 </r>
       <r>   -27.9679     0.0000    24.0000 </r>
       <r>   -27.8499     0.0000    24.0000 </r>
       <r>   -27.7318     0.0000    24.0000 </r>
       <r>   -27.6138     0.0000    24.0000 </r>
       <r>   -27.4958     0.0000    24.0000 </r>
       <r>   -27.3777     0.0000    24.0000 </r>
       <r>   -27.2597     0.0000    24.0000 </r>
       <r>   -27.1417     0.0000    24.0000 </r>
       <r>   -27.0236     0.0000    24.0000 </r>
       <r>   -26.9056     0.0000    24.0000 </r>
       <r>   -26.7876     0.0000    24.0000 </r>
       <r>   -26.6695    88.0880    34.3973 </r>
       <r>   -26.5515   101.6663    48.0000 </r>
       <r>   -26.4335     0.0000    50.0000 </r>
       <r>   -26.3154     0.0000    50.0000 </r>
       <r>   -26.1974    16.9436    51.9999 </r>
       <r>   -26.0794     0.0000    52.0000 </r>
       <r>   -25.9613     0.0000    52.0000 </r>
       <r>   -25.8433     0.0000    52.0000 </r>
       <r>   -25.7253     0.0000    52.0000 </r>
       <r>   -25.6072     0.0000    52.0000 </r>
       <r>   -25.4892     0.0000    52.0000 </r>
       <r>   -25.3712     0.0000    52.0000 </r>
       <r>   -25.2531     0.0000    52.0000 </r>
       <r>   -25.1351     0.0000    52.0000 </r>
       <r>   -25.0171     0.0000    52.0000 </r>
       <r>   -24.8990     0.0000    52.0000 </r>
       <r>   -24.7810     0.0000    52.0000 </r>
       <r>   -24.6630     0.0000    52.0000 </r>
       <r>   -24.5449     0.0000    52.0000 </r>
       <r>   -24.4269     0.0000    52.0000 </r>
       <r>   -24.3089     0.0000    52.0000 </r>
       <r>   -24.1908     0.0000    52.0000 </r>
       <r>   -24.0728     0.0000    52.0000 </r>
       <r>   -23.9548     0.0000    52.0000 </r>
       <r>   -23.8367     0.0000    52.0000 </r>
       <r>   -23.7187     0.0000    52.0000 </r>
       <r>   -23.6007    33.8868    55.9998 </r>
       <r>   -23.4826     0.0637    56.0075 </r>
       <r>   -23.3646    20.6156    60.0000 </r>
       <r>   -23.2466    14.2029    61.9431 </r>
       <r>   -23.1285    30.1774    65.5619 </r>
       <r>   -23.0105     0.0000    66.0000 </r>
       <r>   -22.8925     0.0000    66.0000 </r>
       <r>   -22.7744     4.1856    66.4940 </r>
       <r>   -22.6564    32.2583    71.8076 </r>
       <r>   -22.5384     0.0000    72.0000 </r>
       <r>   -22.4203     0.0000    72.0000 </r>
       <r>   -22.3023     0.0000    72.0000 </r>
       <r>   -22.1843     0.0000    72.0000 </r>
       <r>   -22.0662     0.0000    72.0000 </r>
       <r>   -21.9482     0.0000    72.0000 </r>
       <r>   -21.8302     0.0000    72.0000 </r>
       <r>   -21.7121     0.0000    72.0000 </r>
       <r>   -21.5941     0.0000    72.0000 </r>
       <r>   -21.4760     0.0000    72.0000 </r>
       <r>   -21.3580     0.0000    72.0000 </r>
       <r>   -21.2400     0.0000    72.0000 </r>
       <r>   -21.1219     0.0000    72.0000 </r>
       <r>   -21.0039    50.6761    77.9815 </r>
       <r>   -20.8859    83.5490    87.8616 </r>
       <r>   -20.7678     0.0000    90.0000 </r>
       <r>   -20.6498     0.0000    90.0000 </r>
       <r>   -20.5318     0.0000    90.0000 </r>
       <r>   -20.4137     0.0000    90.0000 </r>
       <r>   -20.2957     0.0494    90.0058 </r>
       <r>   -20.1777    13.7898    94.1277 </r>
       <r>   -20.0596     7.6249    96.0000 </r>
       <r>   -19.9416     0.0000    96.0000 </r>
       <r>   -19.8236     0.0000    96.0000 </r>
       <r>   -19.7055     0.0000    96.0000 </r>
       <r>   -19.5875     0.0000    96.0000 </r>
       <r>   -19.4695     0.0000    96.0000 </r>
       <r>   -19.3514     0.0000    96.0000 </r>
       <r>   -19.2334     0.0000    96.0000 </r>
       <r>   -19.1154     0.0000    96.0000 </r>
       <r>   -18.9973     0.0000    96.0000 </r>
       <r>   -18.8793     0.0000    96.0000 </r>
       <r>   -18.7613    29.0284    99.4263 </r>
       <r>   -18.6432     3.9537   102.0000 </r>
       <r>   -18.5252     0.0000   102.0000 </r>
       <r>   -18.4072     0.0000   102.0000 </r>
       <r>   -18.2891     0.0000   102.0000 </r>
       <r>   -18.1711     0.4327   102.0511 </r>
       <r>   -18.0531    33.8886   110.0000 </r>
       <r>   -17.9350     0.0000   110.0000 </r>
       <r>   -17.8170    29.0034   113.4234 </r>
       <r>   -17.6990    27.1109   120.0000 </r>
       <r>   -17.5809    33.8886   124.0000 </r>
       <r>   -17.4629     0.0078   124.0009 </r>
       <r>   -17.3449     5.3529   125.3652 </r>
       <r>   -17.2268    21.0955   127.9900 </r>
       <r>   -17.1088     0.0000   128.0000 </r>
       <r>   -16.9908     0.0000   128.0000 </r>
       <r>   -16.8727     0.0000   128.0000 </r>
       <r>   -16.7547     3.4601   128.4084 </r>
       <r>   -16.6367     1.9730   128.7329 </r>
       <r>   -16.5186     1.9622   129.0649 </r>
       <r>   -16.4006     3.4960   129.9126 </r>
       <r>   -16.2826     3.9810   130.4699 </r>
       <r>   -16.1645     2.0948   131.1473 </r>
       <r>   -16.0465     1.8141   131.4808 </r>
       <r>   -15.9285     3.3888   132.0000 </r>
       <r>   -15.8104     0.0000   132.0000 </r>
       <r>   -15.6924     0.0000   132.0000 </r>
       <r>   -15.5744     0.0000   132.0000 </r>
       <r>   -15.4563     0.0000   132.0000 </r>
       <r>   -15.3383     0.0011   132.0001 </r>
       <r>   -15.2203     3.6223   134.6276 </r>
       <r>   -15.1022     6.0965   135.5196 </r>
       <r>   -14.9842    25.7202   139.0359 </r>
       <r>   -14.8662    48.2906   147.9999 </r>
       <r>   -14.7481    26.8239   151.1661 </r>
       <r>   -14.6301    15.7120   153.8545 </r>
       <r>   -14.5121     0.0000   154.0000 </r>
       <r>   -14.3940     1.3694   154.1616 </r>
       <r>   -14.2760    36.9407   160.3602 </r>
       <r>   -14.1580     0.0160   162.0019 </r>
       <r>   -14.0399     4.7472   162.9937 </r>
       <r>   -13.9219     6.1771   164.3291 </r>
       <r>   -13.8039     3.6006   165.2917 </r>
       <r>   -13.6858    24.5951   168.4031 </r>
       <r>   -13.5678    22.8748   174.0000 </r>
       <r>   -13.4498    52.4176   180.1870 </r>
       <r>   -13.3317     3.6397   186.4296 </r>
       <r>   -13.2137    59.6369   198.0058 </r>
       <r>   -13.0957    95.6906   212.0280 </r>
       <r>   -12.9776    20.3332   216.0000 </r>
       <r>   -12.8596    35.0454   220.1365 </r>
       <r>   -12.7416    16.9443   224.0000 </r>
       <r>   -12.6235    22.4941   226.6551 </r>
       <r>   -12.5055    49.6022   237.8547 </r>
       <r>   -12.3875     2.7687   238.3268 </r>
       <r>   -12.2694     0.1224   240.0145 </r>
       <r>   -12.1514    22.1324   246.8124 </r>
       <r>   -12.0334    35.2561   251.2281 </r>
       <r>   -11.9153     0.0000   254.0000 </r>
       <r>   -11.7973    18.5098   256.1848 </r>
       <r>   -11.6793     4.5112   257.1991 </r>
       <r>   -11.5612     1.8913   257.5232 </r>
       <r>   -11.4432    19.8166   259.9724 </r>
       <r>   -11.3252     0.0000   262.0000 </r>
       <r>   -11.2071     1.7851   262.2107 </r>
       <r>   -11.0891     1.6614   262.5294 </r>
       <r>   -10.9711     1.6143   262.8239 </r>
       <r>   -10.8530     4.8297   263.5034 </r>
       <r>   -10.7350     3.5464   264.1853 </r>
       <r>   -10.6170     5.3490   265.0980 </r>
       <r>   -10.4989    22.8800   267.9339 </r>
       <r>   -10.3809    20.5683   271.9944 </r>
       <r>   -10.2629    37.6333   276.4420 </r>
       <r>   -10.1448    21.1622   281.9645 </r>
       <r>   -10.0268     7.5304   285.4888 </r>
       <r>    -9.9088    52.4200   292.1873 </r>
       <r>    -9.7907    33.6973   296.7774 </r>
       <r>    -9.6727     0.0000   298.0000 </r>
       <r>    -9.5547     0.0677   298.0080 </r>
       <r>    -9.4366    18.6388   302.0000 </r>
       <r>    -9.3186     0.0000   302.0000 </r>
       <r>    -9.2006     0.0000   302.0000 </r>
       <r>    -9.0825    33.8886   306.0000 </r>
       <r>    -8.9645     0.0000   306.0000 </r>
       <r>    -8.8465    25.2889   308.9849 </r>
       <r>    -8.7284     0.0000   310.0000 </r>
       <r>    -8.6104     0.0000   310.0000 </r>
       <r>    -8.4924     0.0000   310.0000 </r>
       <r>    -8.3743     0.0000   310.0000 </r>
       <r>    -8.2563     0.0000   310.0000 </r>
       <r>    -8.1382     0.9652   310.1139 </r>
       <r>    -8.0202    72.7521   322.5872 </r>
       <r>    -7.9022    80.8703   333.5454 </r>
       <r>    -7.7841    33.8886   340.0000 </r>
       <r>    -7.6661    55.5546   346.5573 </r>
       <r>    -7.5481    60.5876   359.1514 </r>
       <r>    -7.4300    50.7436   369.9895 </r>
       <r>    -7.3120     0.0000   370.0000 </r>
       <r>    -7.1940     0.4524   370.0534 </r>
       <r>    -7.0759    59.5683   381.5977 </r>
       <r>    -6.9579    50.8330   388.0000 </r>
       <r>    -6.8399    84.7216   398.0000 </r>
       <r>    -6.7218    33.8886   402.0000 </r>
       <r>    -6.6038    49.7162   407.8682 </r>
       <r>    -6.4858     4.3385   408.5121 </r>
       <r>    -6.3677     0.0000   414.0000 </r>
       <r>    -6.2497     0.0000   414.0000 </r>
       <r>    -6.1317     0.0000   414.0000 </r>
       <r>    -6.0136     0.0000   414.0000 </r>
       <r>    -5.8956     0.0000   414.0000 </r>
       <r>    -5.7776     0.0000   414.0000 </r>
       <r>    -5.6595     0.0000   414.0000 </r>
       <r>    -5.5415     0.0000   414.0000 </r>
       <r>    -5.4235     0.0000   414.0000 </r>
       <r>    -5.3054     0.0000   414.0000 </r>
       <r>    -5.1874     0.0000   414.0000 </r>
       <r>    -5.0694     0.0000   414.0000 </r>
       <r>    -4.9513     0.0000   414.0000 </r>
       <r>    -4.8333     0.0000   414.0000 </r>
       <r>    -4.7153     0.0000   414.0000 </r>
       <r>    -4.5972     0.0000   414.0000 </r>
       <r>    -4.4792     0.0000   414.0000 </r>
       <r>    -4.3612     0.0000   414.0000 </r>
       <r>    -4.2431     0.0000   414.0000 </r>
       <r>    -4.1251     0.0000   414.0000 </r>
       <r>    -4.0071     0.0000   414.0000 </r>
       <r>    -3.8890    48.0588   419.6726 </r>
       <r>    -3.7710    23.4289   424.1654 </r>
       <r>    -3.6530    79.2924   435.3592 </r>
       <r>    -3.5349    16.9443   438.0000 </r>
       <r>    -3.4169     0.0000   438.0000 </r>
       <r>    -3.2989    32.7712   441.8681 </r>
       <r>    -3.1808     9.9809   443.1781 </r>
       <r>    -3.0628     0.0000   446.0000 </r>
       <r>    -2.9448     0.0000   446.0000 </r>
       <r>    -2.8267     0.0000   446.0000 </r>
       <r>    -2.7087     0.0000   446.0000 </r>
       <r>    -2.5907     0.0000   446.0000 </r>
       <r>    -2.4726     0.0000   446.0000 </r>
       <r>    -2.3546     3.9603   446.4674 </r>
       <r>    -2.2366     0.0000   448.0000 </r>
       <r>    -2.1185    19.2263   450.2694 </r>
       <r>    -2.0005     7.9094   452.0002 </r>
       <r>    -1.8825     7.3425   454.0000 </r>
       <r>    -1.7644     0.0000   454.0000 </r>
       <r>    -1.6464     0.0444   454.0052 </r>
       <r>    -1.5284    11.2962   460.0000 </r>
       <r>    -1.4103     0.0000   460.0000 </r>
       <r>    -1.2923     0.0000   460.0000 </r>
       <r>    -1.1743    28.8369   463.4037 </r>
       <r>    -1.0562     0.0000   466.0000 </r>
       <r>    -0.9382     0.0000   466.0000 </r>
       <r>    -0.8202    33.8886   470.0000 </r>
       <r>    -0.7021     0.0000   470.0000 </r>
       <r>    -0.5841     2.6957   470.3182 </r>
       <r>    -0.4661     0.0000   472.0000 </r>
       <r>    -0.3480     0.0000   472.0000 </r>
       <r>    -0.2300    16.9443   474.0000 </r>
       <r>    -0.1120     0.0000   474.0000 </r>
       <r>     0.0061     0.3374   474.0398 </r>
       <r>     0.1241     2.1232   476.2506 </r>
       <r>     0.2421    17.4778   482.0630 </r>
       <r>     0.3602     9.7181   485.7471 </r>
       <r>     0.4782    27.6850   489.2678 </r>
       <r>     0.5962    18.6213   492.8313 </r>
       <r>     0.7143    45.2540   500.3415 </r>
       <r>     0.8323    15.0135   502.7054 </r>
       <r>     0.9503    25.7823   507.0432 </r>
       <r>     1.0684    28.8921   511.4102 </r>
       <r>     1.1864     0.5648   512.0000 </r>
       <r>     1.3044     0.0000   512.0000 </r>
       <r>     1.4225     0.0000   512.0000 </r>
       <r>     1.5405     0.0000   512.0000 </r>
       <r>     1.6585     0.0000   512.0000 </r>
       <r>     1.7766     0.0000   512.0000 </r>
       <r>     1.8946     0.0000   512.0000 </r>
       <r>     2.0126     0.0000   512.0000 </r>
       <r>     2.1307     0.0000   512.0000 </r>
       <r>     2.2487     0.0000   512.0000 </r>
       <r>     2.3667     0.0000   512.0000 </r>
       <r>     2.4848     0.0000   512.0000 </r>
       <r>     2.6028     0.0000   512.0000 </r>
       <r>     2.7208     0.0000   512.0000 </r>
      </set>
     </set>
    </array>
   </total>
  </dos>
 </calculation>
 <structure name="finalpos" >
  <crystal>
   <varray name="basis" >
    <v>      22.13377868       0.03810442       0.00000000 </v>
    <v>     -11.03416360      19.13265612       0.00000000 </v>
    <v>       0.00000000       0.00000000      20.00000000 </v>
   </varray>
   <i name="volume">   8477.96853128 </i>
   <varray name="rec_basis" >
    <v>       0.04513500       0.02603021       0.00000000 </v>
    <v>      -0.00008989       0.05221482       0.00000000 </v>
    <v>       0.00000000       0.00000000       0.05000000 </v>
   </varray>
  </crystal>
  <varray name="positions" >
   <v>       0.08942800       0.59553462       0.50737215 </v>
   <v>       0.16169909       0.63267155       0.50859577 </v>
   <v>       0.16271107       0.52446482       0.49932091 </v>
   <v>       0.09049695       0.48850152       0.49932841 </v>
   <v>       0.05066062       0.52212845       0.50319266 </v>
   <v>       0.27617586       0.63617938       0.50506669 </v>
   <v>       0.19918586       0.59728385       0.50435529 </v>
   <v>       0.37885519       0.63660576       0.50563346 </v>
   <v>       0.37811730       0.73893846       0.50514203 </v>
   <v>       0.64493553       0.37163838       0.50975026 </v>
   <v>       0.74686992       0.37149860       0.50876087 </v>
   <v>       0.64499343       0.26940693       0.50766761 </v>
   <v>       0.52494205       0.92524645       0.50659295 </v>
   <v>       0.48927630       0.85287051       0.50742707 </v>
   <v>       0.60597752       0.19156303       0.50696286 </v>
   <v>       0.59706094       0.15410925       0.56568745 </v>
   <v>       0.55852374       0.08152649       0.56462350 </v>
   <v>       0.41962350       0.49012420       0.50975406 </v>
   <v>       0.38247985       0.52546096       0.51007873 </v>
   <v>       0.60604665       0.41065378       0.50946538 </v>
   <v>       0.58005111       0.42214870       0.56857273 </v>
   <v>       0.54527514       0.46005047       0.56714555 </v>
   <v>       0.82452543       0.41011013       0.50759014 </v>
   <v>       0.86254256       0.43663092       0.56629942 </v>
   <v>       0.93497233       0.47058486       0.56425956 </v>
   <v>       0.41648877       0.81608176       0.50515343 </v>
   <v>       0.38079100       0.85340033       0.50291112 </v>
   <v>       0.41766277       0.92579568       0.50353902 </v>
   <v>       0.49103550       0.96489208       0.50497819 </v>
   <v>       0.53039142       0.04295965       0.50553617 </v>
   <v>       0.54247536       0.08301575       0.44715238 </v>
   <v>       0.57772017       0.15560626       0.44750718 </v>
   <v>       0.41778393       0.59831181       0.50614362 </v>
   <v>       0.49054768       0.63439342       0.50264209 </v>
   <v>       0.52651319       0.59792214       0.50357930 </v>
   <v>       0.49294586       0.52446756       0.50680593 </v>
   <v>       0.53220075       0.48555691       0.50760092 </v>
   <v>       0.55792513       0.47109839       0.44896489 </v>
   <v>       0.59527991       0.43583064       0.44941984 </v>
   <v>       0.97276775       0.48297084       0.50437855 </v>
   <v>       0.93211403       0.45701641       0.44613554 </v>
   <v>       0.85970893       0.41977381       0.44727907 </v>
   <v>       0.08750477       0.69706495       0.53386746 </v>
   <v>       0.99393343       0.37717906       0.51190718 </v>
   <v>       0.99319898       0.61012046       0.48965226 </v>
   <v>       0.09140113       0.38608603       0.47450836 </v>
   <v>       0.31762860       0.38661748       0.53350050 </v>
   <v>       0.40629151       0.37956560       0.49315107 </v>
   <v>       0.40480195       0.02327428       0.52060105 </v>
   <v>       0.31471652       0.92685015       0.48355531 </v>
   <v>       0.50048817       0.98388513       0.63358576 </v>
   <v>       0.62830444       0.92590068       0.52916896 </v>
   <v>       0.58588489       0.08000384       0.67673506 </v>
   <v>       0.63515735       0.02090960       0.48660246 </v>
   <v>       0.50723513       0.52002582       0.63547357 </v>
   <v>       0.52023535       0.43639667       0.68025432 </v>
   <v>       0.03226617       0.50494315       0.63242671 </v>
   <v>       0.93842466       0.49853912       0.67682322 </v>
   <v>       0.51785108       0.08527172       0.33434749 </v>
   <v>       0.49941427       0.98586661       0.37703509 </v>
   <v>       0.63728501       0.61175012       0.51789175 </v>
   <v>       0.57852408       0.48882666       0.33456574 </v>
   <v>       0.62924602       0.70125760       0.48120015 </v>
   <v>       0.50227220       0.51281769       0.37931448 </v>
   <v>       0.92829928       0.43454222       0.33209734 </v>
   <v>       0.02841399       0.51240547       0.37544133 </v>
   <v>       0.05394748       0.63741131       0.51073223 </v>
   <v>       0.05604341       0.41140650       0.49483023 </v>
   <v>       0.30895694       0.59880740       0.50563828 </v>
   <v>       0.30817520       0.70625086       0.50503088 </v>
   <v>       0.41594566       0.70666738       0.50516453 </v>
   <v>       0.71482343       0.40953868       0.51055783 </v>
   <v>       0.71487327       0.30147770       0.50724791 </v>
   <v>       0.60714123       0.30163773       0.50838048 </v>
   <v>       0.54766896       0.04574382       0.62987398 </v>
   <v>       0.60200462       0.96000436       0.50769527 </v>
   <v>       0.52233555       0.47296162       0.63251714 </v>
   <v>       0.37801119       0.41289799       0.51251114 </v>
   <v>       0.97137706       0.49329959       0.62940795 </v>
   <v>       0.51790315       0.04884457       0.38123885 </v>
   <v>       0.37585941       0.96130372       0.50236426 </v>
   <v>       0.54553051       0.49269303       0.38266552 </v>
   <v>       0.60350243       0.64022356       0.50056237 </v>
   <v>       0.96540298       0.46870683       0.37957610 </v>
   <v>       0.18860054       0.68929309       0.51274577 </v>
   <v>       0.19043914       0.49547574       0.49562917 </v>
   <v>       0.32590468       0.49591833       0.51313306 </v>
   <v>       0.32415525       0.82623340       0.50096565 </v>
   <v>       0.51844977       0.82525370       0.50959021 </v>
   <v>       0.61856417       0.18007278       0.61318409 </v>
   <v>       0.58675104       0.40290328       0.61654251 </v>
   <v>       0.83717011       0.43070339       0.61443032 </v>
   <v>       0.58325930       0.18280615       0.40052370 </v>
   <v>       0.61462389       0.42792588       0.40205479 </v>
   <v>       0.51950331       0.69108489       0.49933754 </v>
   <v>       0.83200421       0.39975311       0.40025797 </v>
  </varray>
 </structure>
</modeling>
