<?xml version="1.0" encoding="ISO-8859-1"?>
<modeling>
 <generator>
  <i name="program" type="string">vasp </i>
  <i name="version" type="string">5.4.4.18Apr17-6-g9f103f2a35  </i>
  <i name="subversion" type="string">(build Jun 07 2020 16:50:00) complex            parallel </i>
  <i name="platform" type="string">LinuxIFC </i>
  <i name="date" type="string">2023 02 28 </i>
  <i name="time" type="string">08:34:45 </i>
 </generator>
 <incar>
  <i type="string" name="SYSTEM">Simulation for cell shape cell volume r</i>
  <i type="int" name="ISTART">     1</i>
  <i type="string" name="PREC">high</i>
  <i type="string" name="ALGO">48</i>
  <i type="int" name="ICHARG">    11</i>
  <i type="int" name="NELM">   200</i>
  <i type="int" name="IBRION">    -1</i>
  <i name="EDIFF">      0.00001000</i>
  <i name="EDIFFG">     -0.01000000</i>
  <i type="int" name="NSW">     0</i>
  <i type="int" name="ISIF">     2</i>
  <i name="ENCUT">    500.00000000</i>
  <i name="POTIM">      0.30000000</i>
  <i type="string" name="LREAL">A</i>
  <i type="int" name="ISMEAR">     0</i>
  <i name="SIGMA">      0.01000000</i>
  <i type="int" name="NWRITE">     0</i>
  <i type="logical" name="LWAVE"> F  </i>
  <i type="logical" name="LCHARG"> F  </i>
  <v type="int" name="KPOINT_BSE">    -1     0     0     0</v>
  <i type="int" name="NELM">   200</i>
  <i type="string" name="GGA">PE</i>
 </incar>
 <structure name="primitive_cell" >
  <crystal>
   <varray name="basis" >
    <v>      16.72666448       0.25209068       0.00000000 </v>
    <v>       0.25063391      16.44086890       0.00000000 </v>
    <v>       0.00000000       0.00000000      20.00000000 </v>
   </varray>
   <i name="volume">   5498.75430746 </i>
   <varray name="rec_basis" >
    <v>       0.05979852      -0.00091160       0.00000000 </v>
    <v>      -0.00091690       0.06083801       0.00000000 </v>
    <v>       0.00000000       0.00000000       0.05000000 </v>
   </varray>
  </crystal>
  <varray name="positions" >
   <v>      -0.04076107      -0.12688259       0.43410470 </v>
   <v>      -0.02444926      -0.12523129       0.48693155 </v>
   <v>      -0.02679807      -0.19674328      -0.47533149 </v>
   <v>      -0.00528667      -0.05085618      -0.48329168 </v>
   <v>      -0.09091433       0.02960518       0.43802042 </v>
   <v>      -0.00884825       0.02633074       0.47302457 </v>
   <v>      -0.04879242      -0.27211479       0.49947969 </v>
   <v>       0.03352557      -0.27759481       0.41961001 </v>
   <v>      -0.01546471      -0.30503192       0.44795212 </v>
   <v>       0.06163533       0.02111070       0.42342338 </v>
   <v>      -0.09915845       0.03998411       0.36873602 </v>
   <v>      -0.15958926       0.02281121       0.47763580 </v>
   <v>      -0.01015384      -0.19372078      -0.40627752 </v>
   <v>       0.01593986      -0.04944493      -0.41559217 </v>
   <v>       0.05142391       0.03386846       0.35451914 </v>
   <v>      -0.15403143       0.01645895      -0.46823193 </v>
   <v>      -0.02872800       0.05462771       0.32440097 </v>
   <v>       0.13858602       0.00310431       0.44830816 </v>
   <v>       0.01293555      -0.12145007      -0.37783834 </v>
   <v>      -0.17585666       0.03972101       0.34019219 </v>
   <v>       0.14667031      -0.00899168      -0.49841297 </v>
   <v>      -0.03535464       0.02120913       0.27702065 </v>
   <v>      -0.23588340       0.02158923       0.44903219 </v>
   <v>      -0.00206195       0.10507611      -0.48568160 </v>
   <v>      -0.18981175      -0.33059880       0.44859918 </v>
   <v>      -0.01447348      -0.24914339      -0.37674679 </v>
   <v>      -0.03277176      -0.38986301       0.43131737 </v>
   <v>      -0.24342106       0.02977575       0.37900419 </v>
   <v>       0.11800950       0.02641004       0.31182363 </v>
   <v>       0.20501273      -0.00356788       0.40560819 </v>
   <v>       0.04279605       0.02668788      -0.38218565 </v>
   <v>      -0.18207694       0.04796558       0.28619403 </v>
   <v>      -0.03003474       0.11958940       0.30964748 </v>
   <v>       0.01989193       0.10404868      -0.41807867 </v>
   <v>       0.19344965       0.00661562       0.33624041 </v>
   <v>       0.02799240      -0.11956960      -0.32470774 </v>
   <v>      -0.17109140      -0.36831799      -0.47065063 </v>
   <v>      -0.17728173      -0.38676458       0.47684067 </v>
   <v>      -0.30417931       0.01705553       0.48936554 </v>
   <v>      -0.03727280       0.18188860       0.43051933 </v>
   <v>       0.02858636      -0.42910161       0.39956815 </v>
   <v>       0.10921647       0.03504242       0.25812480 </v>
   <v>      -0.10238201      -0.42988586       0.45289470 </v>
   <v>      -0.01950941       0.18016832       0.48300973 </v>
   <v>       0.10875407       0.02293976      -0.37695457 </v>
   <v>      -0.35046626      -0.07393680       0.42830822 </v>
   <v>      -0.30273302       0.03115051       0.35628977 </v>
   <v>       0.02009611       0.02925561      -0.33047941 </v>
   <v>      -0.35959909      -0.03032165       0.46985587 </v>
   <v>       0.28311365      -0.02266446       0.42561679 </v>
   <v>       0.24501548      -0.00118257       0.30330557 </v>
   <v>      -0.22840021      -0.42680788       0.47249513 </v>
   <v>       0.02044946       0.17760813      -0.38230606 </v>
   <v>       0.27988945       0.04165021      -0.48328109 </v>
   <v>       0.31287910       0.00153325       0.48102960 </v>
   <v>       0.03291132       0.49020210       0.39766533 </v>
   <v>      -0.09579284       0.48595240       0.45181675 </v>
   <v>      -0.01893055       0.25308060      -0.48097569 </v>
   <v>      -0.44212789      -0.02781922       0.49374563 </v>
   <v>      -0.02461316       0.44840229       0.42878077 </v>
   <v>      -0.00054351       0.25101614      -0.41220942 </v>
   <v>       0.03619907       0.17614701      -0.32928071 </v>
   <v>      -0.14351992       0.44843983       0.47070601 </v>
   <v>      -0.38589854       0.04003570      -0.38378231 </v>
   <v>      -0.39106476       0.11951377      -0.44177068 </v>
   <v>      -0.48698164      -0.08118940       0.45890073 </v>
   <v>      -0.04061871       0.32941498       0.49278464 </v>
   <v>       0.39780429      -0.01566974       0.49529991 </v>
   <v>       0.04734373       0.33451148       0.41735745 </v>
   <v>      -0.42826865       0.07799639      -0.41303689 </v>
   <v>      -0.47653080       0.02702694      -0.45894607 </v>
   <v>       0.43463467      -0.07684634       0.46000926 </v>
   <v>      -0.00261332       0.30771672      -0.38392516 </v>
   <v>      -0.00428877       0.36262832       0.44395175 </v>
   <v>       0.40820583       0.07668747      -0.42815063 </v>
   <v>       0.44021503       0.03266756      -0.46013070 </v>
   <v>      -0.46723293       0.11318824      -0.37881093 </v>
  </varray>
 </structure>
 <varray name="primitive_index" >
  <v type="int" >        1 </v>
  <v type="int" >       37 </v>
  <v type="int" >       64 </v>
  <v type="int" >       63 </v>
  <v type="int" >       42 </v>
  <v type="int" >       49 </v>
  <v type="int" >       36 </v>
  <v type="int" >        3 </v>
  <v type="int" >       51 </v>
  <v type="int" >       39 </v>
  <v type="int" >       41 </v>
  <v type="int" >       45 </v>
  <v type="int" >       65 </v>
  <v type="int" >       62 </v>
  <v type="int" >       40 </v>
  <v type="int" >       11 </v>
  <v type="int" >       58 </v>
  <v type="int" >       46 </v>
  <v type="int" >       66 </v>
  <v type="int" >       56 </v>
  <v type="int" >       12 </v>
  <v type="int" >       10 </v>
  <v type="int" >       44 </v>
  <v type="int" >       60 </v>
  <v type="int" >       21 </v>
  <v type="int" >       13 </v>
  <v type="int" >       50 </v>
  <v type="int" >       43 </v>
  <v type="int" >       57 </v>
  <v type="int" >       47 </v>
  <v type="int" >       70 </v>
  <v type="int" >        7 </v>
  <v type="int" >        9 </v>
  <v type="int" >       61 </v>
  <v type="int" >       48 </v>
  <v type="int" >       14 </v>
  <v type="int" >       22 </v>
  <v type="int" >       73 </v>
  <v type="int" >       29 </v>
  <v type="int" >        2 </v>
  <v type="int" >       32 </v>
  <v type="int" >        6 </v>
  <v type="int" >       72 </v>
  <v type="int" >       38 </v>
  <v type="int" >       18 </v>
  <v type="int" >        4 </v>
  <v type="int" >        8 </v>
  <v type="int" >       17 </v>
  <v type="int" >       54 </v>
  <v type="int" >       31 </v>
  <v type="int" >        5 </v>
  <v type="int" >       20 </v>
  <v type="int" >       67 </v>
  <v type="int" >       28 </v>
  <v type="int" >       59 </v>
  <v type="int" >       33 </v>
  <v type="int" >       71 </v>
  <v type="int" >       69 </v>
  <v type="int" >       53 </v>
  <v type="int" >       55 </v>
  <v type="int" >       68 </v>
  <v type="int" >       15 </v>
  <v type="int" >       19 </v>
  <v type="int" >       27 </v>
  <v type="int" >       26 </v>
  <v type="int" >       34 </v>
  <v type="int" >       30 </v>
  <v type="int" >       52 </v>
  <v type="int" >       23 </v>
  <v type="int" >       77 </v>
  <v type="int" >       76 </v>
  <v type="int" >       35 </v>
  <v type="int" >       16 </v>
  <v type="int" >       74 </v>
  <v type="int" >       24 </v>
  <v type="int" >       75 </v>
  <v type="int" >       25 </v>
 </varray>
 <kpoints>
  <generation param="listgenerated">
   <i name="divisions" type="int">      20 </i>
   <v>       0.00000000       0.00000000       0.00000000 </v>
   <v>       0.50000000       0.00000000       0.00000000 </v>
   <v>       0.51497223       0.48555054       0.00000000 </v>
   <v>       0.50000000       0.50000000       0.00000000 </v>
   <v>       0.48502777       0.51444946       0.00000000 </v>
   <v>       0.00000000       0.50000000       0.00000000 </v>
   <v>       0.00000000       0.00000000       0.00000000 </v>
  </generation>
  <varray name="kpointlist" >
   <v>       0.00000000       0.00000000       0.00000000 </v>
   <v>       0.02631579       0.00000000       0.00000000 </v>
   <v>       0.05263158       0.00000000       0.00000000 </v>
   <v>       0.07894737       0.00000000       0.00000000 </v>
   <v>       0.10526316       0.00000000       0.00000000 </v>
   <v>       0.13157895       0.00000000       0.00000000 </v>
   <v>       0.15789474       0.00000000       0.00000000 </v>
   <v>       0.18421053       0.00000000       0.00000000 </v>
   <v>       0.21052632       0.00000000       0.00000000 </v>
   <v>       0.23684211       0.00000000       0.00000000 </v>
   <v>       0.26315789       0.00000000       0.00000000 </v>
   <v>       0.28947368       0.00000000       0.00000000 </v>
   <v>       0.31578947       0.00000000       0.00000000 </v>
   <v>       0.34210526       0.00000000       0.00000000 </v>
   <v>       0.36842105       0.00000000       0.00000000 </v>
   <v>       0.39473684       0.00000000       0.00000000 </v>
   <v>       0.42105263       0.00000000       0.00000000 </v>
   <v>       0.44736842       0.00000000       0.00000000 </v>
   <v>       0.47368421       0.00000000       0.00000000 </v>
   <v>       0.50000000       0.00000000       0.00000000 </v>
   <v>       0.50000000       0.00000000       0.00000000 </v>
   <v>       0.50078801       0.02555529       0.00000000 </v>
   <v>       0.50157602       0.05111058       0.00000000 </v>
   <v>       0.50236404       0.07666587       0.00000000 </v>
   <v>       0.50315205       0.10222117       0.00000000 </v>
   <v>       0.50394006       0.12777646       0.00000000 </v>
   <v>       0.50472807       0.15333175       0.00000000 </v>
   <v>       0.50551608       0.17888704       0.00000000 </v>
   <v>       0.50630410       0.20444233       0.00000000 </v>
   <v>       0.50709211       0.22999762       0.00000000 </v>
   <v>       0.50788012       0.25555291       0.00000000 </v>
   <v>       0.50866813       0.28110820       0.00000000 </v>
   <v>       0.50945614       0.30666350       0.00000000 </v>
   <v>       0.51024416       0.33221879       0.00000000 </v>
   <v>       0.51103217       0.35777408       0.00000000 </v>
   <v>       0.51182018       0.38332937       0.00000000 </v>
   <v>       0.51260819       0.40888466       0.00000000 </v>
   <v>       0.51339620       0.43443995       0.00000000 </v>
   <v>       0.51418422       0.45999524       0.00000000 </v>
   <v>       0.51497223       0.48555054       0.00000000 </v>
   <v>       0.51497223       0.48555054       0.00000000 </v>
   <v>       0.51418422       0.48631103       0.00000000 </v>
   <v>       0.51339620       0.48707153       0.00000000 </v>
   <v>       0.51260819       0.48783203       0.00000000 </v>
   <v>       0.51182018       0.48859253       0.00000000 </v>
   <v>       0.51103217       0.48935303       0.00000000 </v>
   <v>       0.51024416       0.49011352       0.00000000 </v>
   <v>       0.50945614       0.49087402       0.00000000 </v>
   <v>       0.50866813       0.49163452       0.00000000 </v>
   <v>       0.50788012       0.49239502       0.00000000 </v>
   <v>       0.50709211       0.49315552       0.00000000 </v>
   <v>       0.50630410       0.49391602       0.00000000 </v>
   <v>       0.50551608       0.49467651       0.00000000 </v>
   <v>       0.50472807       0.49543701       0.00000000 </v>
   <v>       0.50394006       0.49619751       0.00000000 </v>
   <v>       0.50315205       0.49695801       0.00000000 </v>
   <v>       0.50236404       0.49771851       0.00000000 </v>
   <v>       0.50157602       0.49847900       0.00000000 </v>
   <v>       0.50078801       0.49923950       0.00000000 </v>
   <v>       0.50000000       0.50000000       0.00000000 </v>
   <v>       0.50000000       0.50000000       0.00000000 </v>
   <v>       0.49921199       0.50076050       0.00000000 </v>
   <v>       0.49842398       0.50152100       0.00000000 </v>
   <v>       0.49763596       0.50228149       0.00000000 </v>
   <v>       0.49684795       0.50304199       0.00000000 </v>
   <v>       0.49605994       0.50380249       0.00000000 </v>
   <v>       0.49527193       0.50456299       0.00000000 </v>
   <v>       0.49448392       0.50532349       0.00000000 </v>
   <v>       0.49369590       0.50608398       0.00000000 </v>
   <v>       0.49290789       0.50684448       0.00000000 </v>
   <v>       0.49211988       0.50760498       0.00000000 </v>
   <v>       0.49133187       0.50836548       0.00000000 </v>
   <v>       0.49054386       0.50912598       0.00000000 </v>
   <v>       0.48975584       0.50988648       0.00000000 </v>
   <v>       0.48896783       0.51064697       0.00000000 </v>
   <v>       0.48817982       0.51140747       0.00000000 </v>
   <v>       0.48739181       0.51216797       0.00000000 </v>
   <v>       0.48660380       0.51292847       0.00000000 </v>
   <v>       0.48581578       0.51368897       0.00000000 </v>
   <v>       0.48502777       0.51444946       0.00000000 </v>
   <v>       0.48502777       0.51444946       0.00000000 </v>
   <v>       0.45949999       0.51368897       0.00000000 </v>
   <v>       0.43397222       0.51292847       0.00000000 </v>
   <v>       0.40844444       0.51216797       0.00000000 </v>
   <v>       0.38291666       0.51140747       0.00000000 </v>
   <v>       0.35738888       0.51064697       0.00000000 </v>
   <v>       0.33186111       0.50988648       0.00000000 </v>
   <v>       0.30633333       0.50912598       0.00000000 </v>
   <v>       0.28080555       0.50836548       0.00000000 </v>
   <v>       0.25527777       0.50760498       0.00000000 </v>
   <v>       0.22975000       0.50684448       0.00000000 </v>
   <v>       0.20422222       0.50608398       0.00000000 </v>
   <v>       0.17869444       0.50532349       0.00000000 </v>
   <v>       0.15316666       0.50456299       0.00000000 </v>
   <v>       0.12763889       0.50380249       0.00000000 </v>
   <v>       0.10211111       0.50304199       0.00000000 </v>
   <v>       0.07658333       0.50228149       0.00000000 </v>
   <v>       0.05105555       0.50152100       0.00000000 </v>
   <v>       0.02552778       0.50076050       0.00000000 </v>
   <v>       0.00000000       0.50000000       0.00000000 </v>
   <v>       0.00000000       0.50000000       0.00000000 </v>
   <v>       0.00000000       0.47368421       0.00000000 </v>
   <v>       0.00000000       0.44736842       0.00000000 </v>
   <v>       0.00000000       0.42105263       0.00000000 </v>
   <v>       0.00000000       0.39473684       0.00000000 </v>
   <v>       0.00000000       0.36842105       0.00000000 </v>
   <v>       0.00000000       0.34210526       0.00000000 </v>
   <v>       0.00000000       0.31578947       0.00000000 </v>
   <v>       0.00000000       0.28947368       0.00000000 </v>
   <v>       0.00000000       0.26315789       0.00000000 </v>
   <v>       0.00000000       0.23684211       0.00000000 </v>
   <v>       0.00000000       0.21052632       0.00000000 </v>
   <v>       0.00000000       0.18421053       0.00000000 </v>
   <v>       0.00000000       0.15789474       0.00000000 </v>
   <v>       0.00000000       0.13157895       0.00000000 </v>
   <v>       0.00000000       0.10526316       0.00000000 </v>
   <v>       0.00000000       0.07894737       0.00000000 </v>
   <v>       0.00000000       0.05263158       0.00000000 </v>
   <v>       0.00000000       0.02631579       0.00000000 </v>
   <v>       0.00000000       0.00000000       0.00000000 </v>
  </varray>
  <varray name="weights" >
   <v>       0.00833333 </v>
   <v>       0.00833333 </v>
   <v>       0.00833333 </v>
   <v>       0.00833333 </v>
   <v>       0.00833333 </v>
   <v>       0.00833333 </v>
   <v>       0.00833333 </v>
   <v>       0.00833333 </v>
   <v>       0.00833333 </v>
   <v>       0.00833333 </v>
   <v>       0.00833333 </v>
   <v>       0.00833333 </v>
   <v>       0.00833333 </v>
   <v>       0.00833333 </v>
   <v>       0.00833333 </v>
   <v>       0.00833333 </v>
   <v>       0.00833333 </v>
   <v>       0.00833333 </v>
   <v>       0.00833333 </v>
   <v>       0.00833333 </v>
   <v>       0.00833333 </v>
   <v>       0.00833333 </v>
   <v>       0.00833333 </v>
   <v>       0.00833333 </v>
   <v>       0.00833333 </v>
   <v>       0.00833333 </v>
   <v>       0.00833333 </v>
   <v>       0.00833333 </v>
   <v>       0.00833333 </v>
   <v>       0.00833333 </v>
   <v>       0.00833333 </v>
   <v>       0.00833333 </v>
   <v>       0.00833333 </v>
   <v>       0.00833333 </v>
   <v>       0.00833333 </v>
   <v>       0.00833333 </v>
   <v>       0.00833333 </v>
   <v>       0.00833333 </v>
   <v>       0.00833333 </v>
   <v>       0.00833333 </v>
   <v>       0.00833333 </v>
   <v>       0.00833333 </v>
   <v>       0.00833333 </v>
   <v>       0.00833333 </v>
   <v>       0.00833333 </v>
   <v>       0.00833333 </v>
   <v>       0.00833333 </v>
   <v>       0.00833333 </v>
   <v>       0.00833333 </v>
   <v>       0.00833333 </v>
   <v>       0.00833333 </v>
   <v>       0.00833333 </v>
   <v>       0.00833333 </v>
   <v>       0.00833333 </v>
   <v>       0.00833333 </v>
   <v>       0.00833333 </v>
   <v>       0.00833333 </v>
   <v>       0.00833333 </v>
   <v>       0.00833333 </v>
   <v>       0.00833333 </v>
   <v>       0.00833333 </v>
   <v>       0.00833333 </v>
   <v>       0.00833333 </v>
   <v>       0.00833333 </v>
   <v>       0.00833333 </v>
   <v>       0.00833333 </v>
   <v>       0.00833333 </v>
   <v>       0.00833333 </v>
   <v>       0.00833333 </v>
   <v>       0.00833333 </v>
   <v>       0.00833333 </v>
   <v>       0.00833333 </v>
   <v>       0.00833333 </v>
   <v>       0.00833333 </v>
   <v>       0.00833333 </v>
   <v>       0.00833333 </v>
   <v>       0.00833333 </v>
   <v>       0.00833333 </v>
   <v>       0.00833333 </v>
   <v>       0.00833333 </v>
   <v>       0.00833333 </v>
   <v>       0.00833333 </v>
   <v>       0.00833333 </v>
   <v>       0.00833333 </v>
   <v>       0.00833333 </v>
   <v>       0.00833333 </v>
   <v>       0.00833333 </v>
   <v>       0.00833333 </v>
   <v>       0.00833333 </v>
   <v>       0.00833333 </v>
   <v>       0.00833333 </v>
   <v>       0.00833333 </v>
   <v>       0.00833333 </v>
   <v>       0.00833333 </v>
   <v>       0.00833333 </v>
   <v>       0.00833333 </v>
   <v>       0.00833333 </v>
   <v>       0.00833333 </v>
   <v>       0.00833333 </v>
   <v>       0.00833333 </v>
   <v>       0.00833333 </v>
   <v>       0.00833333 </v>
   <v>       0.00833333 </v>
   <v>       0.00833333 </v>
   <v>       0.00833333 </v>
   <v>       0.00833333 </v>
   <v>       0.00833333 </v>
   <v>       0.00833333 </v>
   <v>       0.00833333 </v>
   <v>       0.00833333 </v>
   <v>       0.00833333 </v>
   <v>       0.00833333 </v>
   <v>       0.00833333 </v>
   <v>       0.00833333 </v>
   <v>       0.00833333 </v>
   <v>       0.00833333 </v>
   <v>       0.00833333 </v>
   <v>       0.00833333 </v>
   <v>       0.00833333 </v>
   <v>       0.00833333 </v>
  </varray>
 </kpoints>
 <parameters>
  <separator name="general" >
   <i type="string" name="SYSTEM">Simulation for cell shape cell volume r</i>
   <i type="logical" name="LCOMPAT"> F  </i>
  </separator>
  <separator name="electronic" >
   <i type="string" name="PREC">high</i>
   <i name="ENMAX">    500.00000000</i>
   <i name="ENAUG">    644.87300000</i>
   <i name="EDIFF">      0.00001000</i>
   <i type="int" name="IALGO">    38</i>
   <i type="int" name="IWAVPR">    10</i>
   <i type="int" name="NBANDS">   160</i>
   <i name="NELECT">    232.00000000</i>
   <i type="int" name="TURBO">     0</i>
   <i type="int" name="IRESTART">     0</i>
   <i type="int" name="NREBOOT">     0</i>
   <i type="int" name="NMIN">     0</i>
   <i name="EREF">      0.00000000</i>
   <separator name="electronic smearing" >
    <i type="int" name="ISMEAR">     0</i>
    <i name="SIGMA">      0.01000000</i>
    <i name="KSPACING">      0.50000000</i>
    <i type="logical" name="KGAMMA"> T  </i>
   </separator>
   <separator name="electronic projectors" >
    <i type="logical" name="LREAL"> T  </i>
    <v name="ROPT">     -0.00040000     -0.00040000     -0.00040000</v>
    <i type="int" name="LMAXPAW">  -100</i>
    <i type="int" name="LMAXMIX">     2</i>
    <i type="logical" name="NLSPLINE"> F  </i>
   </separator>
   <separator name="electronic startup" >
    <i type="int" name="ISTART">     1</i>
    <i type="int" name="ICHARG">    11</i>
    <i type="int" name="INIWAV">     1</i>
   </separator>
   <separator name="electronic spin" >
    <i type="int" name="ISPIN">     1</i>
    <i type="logical" name="LNONCOLLINEAR"> F  </i>
    <v name="MAGMOM">      1.00000000      1.00000000      1.00000000      1.00000000      1.00000000      1.00000000      1.00000000      1.00000000      1.00000000      1.00000000      1.00000000      1.00000000      1.00000000      1.00000000      1.00000000      1.00000000      1.00000000      1.00000000      1.00000000      1.00000000
      1.00000000      1.00000000      1.00000000      1.00000000      1.00000000      1.00000000      1.00000000      1.00000000      1.00000000      1.00000000      1.00000000      1.00000000      1.00000000      1.00000000      1.00000000      1.00000000      1.00000000      1.00000000      1.00000000      1.00000000
      1.00000000      1.00000000      1.00000000      1.00000000      1.00000000      1.00000000      1.00000000      1.00000000      1.00000000      1.00000000      1.00000000      1.00000000      1.00000000      1.00000000      1.00000000      1.00000000      1.00000000      1.00000000      1.00000000      1.00000000
      1.00000000      1.00000000      1.00000000      1.00000000      1.00000000      1.00000000      1.00000000      1.00000000      1.00000000      1.00000000      1.00000000      1.00000000      1.00000000      1.00000000      1.00000000      1.00000000      1.00000000</v>
    <i name="NUPDOWN">     -1.00000000</i>
    <i type="logical" name="LSORBIT"> F  </i>
    <v name="SAXIS">      0.00000000      0.00000000      1.00000000</v>
    <i type="logical" name="LSPIRAL"> F  </i>
    <v name="QSPIRAL">      0.00000000      0.00000000      0.00000000</v>
    <i type="logical" name="LZEROZ"> F  </i>
   </separator>
   <separator name="electronic exchange-correlation" >
    <i type="logical" name="LASPH"> F  </i>
    <i type="logical" name="LMETAGGA"> F  </i>
   </separator>
   <separator name="electronic convergence" >
    <i type="int" name="NELM">   200</i>
    <i type="int" name="NELMDL">     0</i>
    <i type="int" name="NELMIN">     2</i>
    <i name="ENINI">    500.00000000</i>
    <separator name="electronic convergence detail" >
     <i type="logical" name="LDIAG"> T  </i>
     <i type="logical" name="LSUBROT"> F  </i>
     <i name="WEIMIN">      0.00000000</i>
     <i name="EBREAK">      0.00000002</i>
     <i name="DEPER">      0.30000000</i>
     <i type="int" name="NRMM">     4</i>
     <i name="TIME">      0.40000000</i>
    </separator>
   </separator>
   <separator name="electronic mixer" >
    <i name="AMIX">      0.40000000</i>
    <i name="BMIX">      1.00000000</i>
    <i name="AMIN">      0.10000000</i>
    <i name="AMIX_MAG">      1.60000000</i>
    <i name="BMIX_MAG">      1.00000000</i>
    <separator name="electronic mixer details" >
     <i type="int" name="IMIX">     4</i>
     <i type="logical" name="MIXFIRST"> F  </i>
     <i type="int" name="MAXMIX">   -45</i>
     <i name="WC">    100.00000000</i>
     <i type="int" name="INIMIX">     1</i>
     <i type="int" name="MIXPRE">     1</i>
     <i type="int" name="MREMOVE">     5</i>
    </separator>
   </separator>
   <separator name="electronic dipolcorrection" >
    <i type="logical" name="LDIPOL"> F  </i>
    <i type="logical" name="LMONO"> F  </i>
    <i type="int" name="IDIPOL">     0</i>
    <i name="EPSILON">      1.00000000</i>
    <v name="DIPOL">   -100.00000000   -100.00000000   -100.00000000</v>
    <i name="EFIELD">      0.00000000</i>
   </separator>
  </separator>
  <separator name="grids" >
   <i type="int" name="NGX">   126</i>
   <i type="int" name="NGY">   120</i>
   <i type="int" name="NGZ">   150</i>
   <i type="int" name="NGXF">   192</i>
   <i type="int" name="NGYF">   192</i>
   <i type="int" name="NGZF">   224</i>
   <i type="logical" name="ADDGRID"> F  </i>
  </separator>
  <separator name="ionic" >
   <i type="int" name="NSW">     0</i>
   <i type="int" name="IBRION">    -1</i>
   <i type="int" name="MDALGO">     0</i>
   <i type="int" name="ISIF">     2</i>
   <i name="PSTRESS">      0.00000000</i>
   <i name="EDIFFG">     -0.01000000</i>
   <i type="int" name="NFREE">     0</i>
   <i name="POTIM">      0.30000000</i>
   <i name="SMASS">     -3.00000000</i>
   <i name="SCALEE">      1.00000000</i>
  </separator>
  <separator name="ionic md" >
   <i name="TEBEG">      0.00010000</i>
   <i name="TEEND">      0.00010000</i>
   <i type="int" name="NBLOCK">     1</i>
   <i type="int" name="KBLOCK">     1</i>
   <i type="int" name="NPACO">   256</i>
   <i name="APACO">     16.00000000</i>
  </separator>
  <separator name="symmetry" >
   <i type="int" name="ISYM">     2</i>
   <i name="SYMPREC">      0.00001000</i>
  </separator>
  <separator name="dos" >
   <i type="int" name="LORBIT">     0</i>
   <v name="RWIGS">     -1.00000000     -1.00000000     -1.00000000</v>
   <i type="int" name="NEDOS">   301</i>
   <i name="EMIN">     10.00000000</i>
   <i name="EMAX">    -10.00000000</i>
   <i name="EFERMI">      0.00000000</i>
  </separator>
  <separator name="writing" >
   <i type="int" name="NWRITE">     0</i>
   <i type="logical" name="LWAVE"> F  </i>
   <i type="logical" name="LDOWNSAMPLE"> F  </i>
   <i type="logical" name="LCHARG"> F  </i>
   <i type="logical" name="LPARD"> F  </i>
   <i type="logical" name="LVTOT"> F  </i>
   <i type="logical" name="LVHAR"> F  </i>
   <i type="logical" name="LELF"> F  </i>
   <i type="logical" name="LOPTICS"> F  </i>
   <v name="STM">      0.00000000      0.00000000      0.00000000      0.00000000      0.00000000      0.00000000      0.00000000</v>
  </separator>
  <separator name="performance" >
   <i type="int" name="NPAR">    16</i>
   <i type="int" name="NSIM">     4</i>
   <i type="int" name="NBLK">    -1</i>
   <i type="logical" name="LPLANE"> T  </i>
   <i type="logical" name="LSCALAPACK"> T  </i>
   <i type="logical" name="LSCAAWARE"> F  </i>
   <i type="logical" name="LSCALU"> F  </i>
   <i type="logical" name="LASYNC"> F  </i>
   <i type="logical" name="LORBITALREAL"> F  </i>
  </separator>
  <separator name="miscellaneous" >
   <i type="int" name="IDIOT">     3</i>
   <i type="int" name="ISPECIAL">     0</i>
   <i type="logical" name="LMUSIC"> F  </i>
   <v name="POMASS">      1.00000000     14.00100000     12.01100000</v>
   <v name="DARWINR">      0.00000000      0.00000000      0.00000000</v>
   <v name="DARWINV">      1.00000000      1.00000000      1.00000000</v>
   <i type="logical" name="LCORR"> T  </i>
  </separator>
  <i type="logical" name="GGA_COMPAT"> T  </i>
  <i type="logical" name="LBERRY"> F  </i>
  <i type="int" name="ICORELEVEL">     0</i>
  <i type="logical" name="LDAU"> F  </i>
  <i type="int" name="I_CONSTRAINED_M">     0</i>
  <separator name="electronic exchange-correlation" >
   <i type="string" name="GGA">PE</i>
   <i type="int" name="VOSKOWN">     0</i>
   <i type="logical" name="LHFCALC"> F  </i>
   <i type="string" name="PRECFOCK"></i>
   <i type="logical" name="LSYMGRAD"> F  </i>
   <i type="logical" name="LHFONE"> F  </i>
   <i type="logical" name="LRHFCALC"> F  </i>
   <i type="logical" name="LTHOMAS"> F  </i>
   <i type="logical" name="LMODELHF"> F  </i>
   <i name="ENCUT4O">     -1.00000000</i>
   <i type="int" name="EXXOEP">     0</i>
   <i type="int" name="FOURORBIT">     0</i>
   <i name="AEXX">      0.00000000</i>
   <i name="HFALPHA">      0.00000000</i>
   <i name="MCALPHA">      0.00000000</i>
   <i name="ALDAX">      1.00000000</i>
   <i name="AGGAX">      1.00000000</i>
   <i name="ALDAC">      1.00000000</i>
   <i name="AGGAC">      1.00000000</i>
   <i type="int" name="NKREDX">     1</i>
   <i type="int" name="NKREDY">     1</i>
   <i type="int" name="NKREDZ">     1</i>
   <i type="logical" name="SHIFTRED"> F  </i>
   <i type="logical" name="ODDONLY"> F  </i>
   <i type="logical" name="EVENONLY"> F  </i>
   <i type="int" name="LMAXFOCK">     0</i>
   <i type="int" name="NMAXFOCKAE">     0</i>
   <i type="logical" name="LFOCKAEDFT"> F  </i>
   <i name="HFSCREEN">      0.00000000</i>
   <i name="HFSCREENC">      0.00000000</i>
   <i type="int" name="NBANDSGWLOW">     0</i>
  </separator>
  <separator name="vdW DFT" >
   <i type="logical" name="LUSE_VDW"> F  </i>
   <i name="Zab_VDW">     -0.84910000</i>
   <i name="PARAM1">      0.12340000</i>
   <i name="PARAM2">      1.00000000</i>
   <i name="PARAM3">      0.00000000</i>
  </separator>
  <separator name="model GW" >
   <i type="int" name="MODEL_GW">     0</i>
   <i name="MODEL_EPS0">     42.84743616</i>
   <i name="MODEL_ALPHA">      1.00000000</i>
  </separator>
  <separator name="linear response parameters" >
   <i type="logical" name="LEPSILON"> F  </i>
   <i type="logical" name="LRPA"> F  </i>
   <i type="logical" name="LNABLA"> F  </i>
   <i type="logical" name="LVEL"> F  </i>
   <i type="int" name="KINTER">     0</i>
   <i name="CSHIFT">      0.10000000</i>
   <i name="OMEGAMAX">     -1.00000000</i>
   <i name="DEG_THRESHOLD">      0.00200000</i>
   <i name="RTIME">     -0.10000000</i>
   <i name="WPLASMAI">      0.00000000</i>
   <v name="DFIELD">      0.00000000      0.00000000      0.00000000</v>
   <v name="WPLASMA">      0.00000000      0.00000000      0.00000000      0.00000000      0.00000000      0.00000000      0.00000000      0.00000000      0.00000000</v>
  </separator>
  <separator name="orbital magnetization" >
   <i type="logical" name="NUCIND"> F  </i>
   <v name="MAGPOS">      0.00000000      0.00000000      0.00000000</v>
   <i type="logical" name="LNICSALL"> T  </i>
   <i type="logical" name="ORBITALMAG"> F  </i>
   <i type="logical" name="LMAGBLOCH"> F  </i>
   <i type="logical" name="LCHIMAG"> F  </i>
   <i type="logical" name="LGAUGE"> T  </i>
   <i type="int" name="MAGATOM">     0</i>
   <v name="MAGDIPOL">      0.00000000      0.00000000      0.00000000</v>
   <v name="AVECCONST">      0.00000000      0.00000000      0.00000000</v>
  </separator>
  <separator name="response functions" >
   <i type="logical" name="LADDER"> F  </i>
   <i type="logical" name="LRPAFORCE"> F  </i>
   <i type="logical" name="LFXC"> F  </i>
   <i type="logical" name="LHARTREE"> T  </i>
   <i type="int" name="IBSE">     0</i>
   <v type="int" name="KPOINT">    -1     0     0     0</v>
   <i type="logical" name="LTCTE"> F  </i>
   <i type="logical" name="LTETE"> F  </i>
   <i type="logical" name="LTRIPLET"> F  </i>
   <i type="logical" name="LFXCEPS"> F  </i>
   <i type="logical" name="LFXHEG"> F  </i>
   <i type="int" name="NATURALO">     2</i>
   <i type="logical" name="L2ORDER"> F  </i>
   <i type="logical" name="LMP2LT"> F  </i>
   <i type="logical" name="LUSEW"> F  </i>
   <i name="ENCUTGW">     -2.00000000</i>
   <i name="ENCUTGWSOFT">     -2.00000000</i>
   <i name="ENCUTLF">     -1.00000000</i>
   <i type="int" name="LMAXMP2">    -1</i>
   <i name="SCISSOR">      0.00000000</i>
   <i type="int" name="NOMEGA">     0</i>
   <i type="int" name="NOMEGAR">     0</i>
   <i type="int" name="NBANDSGW">    -1</i>
   <i type="int" name="NBANDSO">    -1</i>
   <i type="int" name="NBANDSV">    -1</i>
   <i type="int" name="NELM">   200</i>
   <i type="int" name="NELMHF">     1</i>
   <i type="int" name="DIM">     3</i>
   <i type="int" name="ANTIRES">     0</i>
   <i name="OMEGAMAX">    -30.00000000</i>
   <i name="OMEGAMIN">    -30.00000000</i>
   <i name="OMEGATL">   -200.00000000</i>
   <i type="int" name="OMEGAGRID">   140</i>
   <i name="CSHIFT">     -0.10000000</i>
   <i type="logical" name="SELFENERGY"> F  </i>
   <i type="logical" name="LSPECTRAL"> F  </i>
   <i type="logical" name="LSPECTRALGW"> F  </i>
   <i type="logical" name="LSINGLES"> F  </i>
   <i type="logical" name="LFERMIGW"> F  </i>
   <i type="logical" name="ODDONLYGW"> F  </i>
   <i type="logical" name="EVENONLYGW"> F  </i>
   <i type="int" name="NKREDLFX">     1</i>
   <i type="int" name="NKREDLFY">     1</i>
   <i type="int" name="NKREDLFZ">     1</i>
   <i type="int" name="MAXMEM">  2800</i>
   <i type="int" name="TELESCOPE">     0</i>
   <i type="int" name="TAUPAR">     1</i>
   <i type="int" name="OMEGAPAR">    -1</i>
   <i name="LAMBDA">      1.00000000</i>
  </separator>
  <separator name="External order field" >
   <i name="OFIELD_KAPPA">      0.00000000</i>
   <v name="OFIELD_K">      0.00000000      0.00000000      0.00000000</v>
   <i name="OFIELD_Q6_NEAR">      0.00000000</i>
   <i name="OFIELD_Q6_FAR">      0.00000000</i>
   <i name="OFIELD_A">      0.00000000</i>
  </separator>
  <separator name="solvation model" >
   <i type="logical" name="LSOL"> F  </i>
  </separator>
 </parameters>
 <atominfo>
  <atoms>      77 </atoms>
  <types>       3 </types>
  <array name="atoms" >
   <dimension dim="1">ion</dimension>
   <field type="string">element</field>
   <field type="int">atomtype</field>
   <set>
    <rc><c>H </c><c>   1</c></rc>
    <rc><c>H </c><c>   1</c></rc>
    <rc><c>H </c><c>   1</c></rc>
    <rc><c>H </c><c>   1</c></rc>
    <rc><c>H </c><c>   1</c></rc>
    <rc><c>H </c><c>   1</c></rc>
    <rc><c>H </c><c>   1</c></rc>
    <rc><c>H </c><c>   1</c></rc>
    <rc><c>H </c><c>   1</c></rc>
    <rc><c>H </c><c>   1</c></rc>
    <rc><c>H </c><c>   1</c></rc>
    <rc><c>H </c><c>   1</c></rc>
    <rc><c>H </c><c>   1</c></rc>
    <rc><c>H </c><c>   1</c></rc>
    <rc><c>H </c><c>   1</c></rc>
    <rc><c>H </c><c>   1</c></rc>
    <rc><c>H </c><c>   1</c></rc>
    <rc><c>H </c><c>   1</c></rc>
    <rc><c>H </c><c>   1</c></rc>
    <rc><c>H </c><c>   1</c></rc>
    <rc><c>H </c><c>   1</c></rc>
    <rc><c>H </c><c>   1</c></rc>
    <rc><c>H </c><c>   1</c></rc>
    <rc><c>H </c><c>   1</c></rc>
    <rc><c>H </c><c>   1</c></rc>
    <rc><c>H </c><c>   1</c></rc>
    <rc><c>H </c><c>   1</c></rc>
    <rc><c>H </c><c>   1</c></rc>
    <rc><c>N </c><c>   2</c></rc>
    <rc><c>N </c><c>   2</c></rc>
    <rc><c>N </c><c>   2</c></rc>
    <rc><c>N </c><c>   2</c></rc>
    <rc><c>N </c><c>   2</c></rc>
    <rc><c>N </c><c>   2</c></rc>
    <rc><c>N </c><c>   2</c></rc>
    <rc><c>N </c><c>   2</c></rc>
    <rc><c>C </c><c>   3</c></rc>
    <rc><c>C </c><c>   3</c></rc>
    <rc><c>C </c><c>   3</c></rc>
    <rc><c>C </c><c>   3</c></rc>
    <rc><c>C </c><c>   3</c></rc>
    <rc><c>C </c><c>   3</c></rc>
    <rc><c>C </c><c>   3</c></rc>
    <rc><c>C </c><c>   3</c></rc>
    <rc><c>C </c><c>   3</c></rc>
    <rc><c>C </c><c>   3</c></rc>
    <rc><c>C </c><c>   3</c></rc>
    <rc><c>C </c><c>   3</c></rc>
    <rc><c>C </c><c>   3</c></rc>
    <rc><c>C </c><c>   3</c></rc>
    <rc><c>C </c><c>   3</c></rc>
    <rc><c>C </c><c>   3</c></rc>
    <rc><c>C </c><c>   3</c></rc>
    <rc><c>C </c><c>   3</c></rc>
    <rc><c>C </c><c>   3</c></rc>
    <rc><c>C </c><c>   3</c></rc>
    <rc><c>C </c><c>   3</c></rc>
    <rc><c>C </c><c>   3</c></rc>
    <rc><c>C </c><c>   3</c></rc>
    <rc><c>C </c><c>   3</c></rc>
    <rc><c>C </c><c>   3</c></rc>
    <rc><c>C </c><c>   3</c></rc>
    <rc><c>C </c><c>   3</c></rc>
    <rc><c>C </c><c>   3</c></rc>
    <rc><c>C </c><c>   3</c></rc>
    <rc><c>C </c><c>   3</c></rc>
    <rc><c>C </c><c>   3</c></rc>
    <rc><c>C </c><c>   3</c></rc>
    <rc><c>C </c><c>   3</c></rc>
    <rc><c>C </c><c>   3</c></rc>
    <rc><c>C </c><c>   3</c></rc>
    <rc><c>C </c><c>   3</c></rc>
    <rc><c>C </c><c>   3</c></rc>
    <rc><c>C </c><c>   3</c></rc>
    <rc><c>C </c><c>   3</c></rc>
    <rc><c>C </c><c>   3</c></rc>
    <rc><c>C </c><c>   3</c></rc>
   </set>
  </array>
  <array name="atomtypes" >
   <dimension dim="1">type</dimension>
   <field type="int">atomspertype</field>
   <field type="string">element</field>
   <field>mass</field>
   <field>valence</field>
   <field type="string">pseudopotential</field>
   <set>
    <rc><c>  28</c><c>H </c><c>      1.00000000</c><c>      1.00000000</c><c>  PAW_PBE H 15Jun2001                   </c></rc>
    <rc><c>   8</c><c>N </c><c>     14.00100000</c><c>      5.00000000</c><c>  PAW_PBE N 08Apr2002                   </c></rc>
    <rc><c>  41</c><c>C </c><c>     12.01100000</c><c>      4.00000000</c><c>  PAW_PBE C 08Apr2002                   </c></rc>
   </set>
  </array>
 </atominfo>
 <structure name="initialpos" >
  <crystal>
   <varray name="basis" >
    <v>      16.72666448       0.25209068       0.00000000 </v>
    <v>       0.25063391      16.44086890       0.00000000 </v>
    <v>       0.00000000       0.00000000      20.00000000 </v>
   </varray>
   <i name="volume">   5498.75430746 </i>
   <varray name="rec_basis" >
    <v>       0.05979852      -0.00091160       0.00000000 </v>
    <v>      -0.00091690       0.06083801       0.00000000 </v>
    <v>       0.00000000       0.00000000       0.05000000 </v>
   </varray>
  </crystal>
  <varray name="positions" >
   <v>       0.95923893       0.87311741       0.43410470 </v>
   <v>       0.96272720       0.18188860       0.43051933 </v>
   <v>       0.03352557       0.72240519       0.41961001 </v>
   <v>       0.64953374       0.92606320       0.42830822 </v>
   <v>       0.24501548       0.99881743       0.30330557 </v>
   <v>       0.10921647       0.03504242       0.25812480 </v>
   <v>       0.81792306       0.04796558       0.28619403 </v>
   <v>       0.69726698       0.03115051       0.35628977 </v>
   <v>       0.96996526       0.11958940       0.30964748 </v>
   <v>       0.96464536       0.02120913       0.27702065 </v>
   <v>       0.84596857       0.01645895       0.53176807 </v>
   <v>       0.14667031       0.99100832       0.50158703 </v>
   <v>       0.98552652       0.75085661       0.62325321 </v>
   <v>       0.02799240       0.88043040       0.67529226 </v>
   <v>       0.03619907       0.17614701       0.67071929 </v>
   <v>       0.99738668       0.30771672       0.61607484 </v>
   <v>       0.02009611       0.02925561       0.66952059 </v>
   <v>       0.10875407       0.02293976       0.62304543 </v>
   <v>       0.85648008       0.44843983       0.47070601 </v>
   <v>       0.77159979       0.57319212       0.47249513 </v>
   <v>       0.81018825       0.66940120       0.44859918 </v>
   <v>       0.82890860       0.63168201       0.52934937 </v>
   <v>       0.04734373       0.33451148       0.41735745 </v>
   <v>       0.40820583       0.07668747       0.57184937 </v>
   <v>       0.53276707       0.11318824       0.62118907 </v>
   <v>       0.60893524       0.11951377       0.55822932 </v>
   <v>       0.61410146       0.04003570       0.61621769 </v>
   <v>       0.27988945       0.04165021       0.51671891 </v>
   <v>       0.69582069       0.01705553       0.48936554 </v>
   <v>       0.95938129       0.32941498       0.49278464 </v>
   <v>       0.28311365       0.97733554       0.42561679 </v>
   <v>       0.02858636       0.57089839       0.39956815 </v>
   <v>       0.03291132       0.49020210       0.39766533 </v>
   <v>       0.51301836       0.91881060       0.45890073 </v>
   <v>       0.43463467       0.92315366       0.46000926 </v>
   <v>       0.95120758       0.72788521       0.49947969 </v>
   <v>       0.97555074       0.87476871       0.48693155 </v>
   <v>       0.98049059       0.18016832       0.48300973 </v>
   <v>       0.06163533       0.02111070       0.42342338 </v>
   <v>       0.05142391       0.03386846       0.35451914 </v>
   <v>       0.90084155       0.03998411       0.36873602 </v>
   <v>       0.90908567       0.02960518       0.43802042 </v>
   <v>       0.75657894       0.02977575       0.37900419 </v>
   <v>       0.76411660       0.02158923       0.44903219 </v>
   <v>       0.84041074       0.02281121       0.47763580 </v>
   <v>       0.13858602       0.00310431       0.44830816 </v>
   <v>       0.20501273       0.99643212       0.40560819 </v>
   <v>       0.19344965       0.00661562       0.33624041 </v>
   <v>       0.99115175       0.02633074       0.47302457 </v>
   <v>       0.96722824       0.61013699       0.43131737 </v>
   <v>       0.98453529       0.69496808       0.44795212 </v>
   <v>       0.39780429       0.98433026       0.49529991 </v>
   <v>       0.55787211       0.97218078       0.49374563 </v>
   <v>       0.64040091       0.96967835       0.46985587 </v>
   <v>       0.97538684       0.44840229       0.42878077 </v>
   <v>       0.82414334       0.03972101       0.34019219 </v>
   <v>       0.11800950       0.02641004       0.31182363 </v>
   <v>       0.97127200       0.05462771       0.32440097 </v>
   <v>       0.31287910       0.00153325       0.48102960 </v>
   <v>       0.99793805       0.10507611       0.51431840 </v>
   <v>       0.01989193       0.10404868       0.58192133 </v>
   <v>       0.01593986       0.95055507       0.58440783 </v>
   <v>       0.99471333       0.94914382       0.51670832 </v>
   <v>       0.97320193       0.80325672       0.52466851 </v>
   <v>       0.98984616       0.80627922       0.59372248 </v>
   <v>       0.01293555       0.87854993       0.62216166 </v>
   <v>       0.02044946       0.17760813       0.61769394 </v>
   <v>       0.99945649       0.25101614       0.58779058 </v>
   <v>       0.98106945       0.25308060       0.51902431 </v>
   <v>       0.04279605       0.02668788       0.61781435 </v>
   <v>       0.90420716       0.48595240       0.45181675 </v>
   <v>       0.89761799       0.57011414       0.45289470 </v>
   <v>       0.82271827       0.61323542       0.47684067 </v>
   <v>       0.99571123       0.36262832       0.44395175 </v>
   <v>       0.44021503       0.03266756       0.53986930 </v>
   <v>       0.52346920       0.02702694       0.54105393 </v>
   <v>       0.57173135       0.07799639       0.58696311 </v>
  </varray>
 </structure>
 <calculation>
  <scstep>
   <time name="dav">  217.26  219.32</time>
   <time name="total">  217.35  219.42</time>
   <energy>
    <i name="alphaZ">     45.67680759 </i>
    <i name="ewald">  25405.02350638 </i>
    <i name="hartreedc"> -32439.15739221 </i>
    <i name="XCdc">    800.87015015 </i>
    <i name="pawpsdc">  21190.86921015 </i>
    <i name="pawaedc"> -21230.54152223 </i>
    <i name="eentropy">     -0.00000000 </i>
    <i name="bandstr">  -2803.56602571 </i>
    <i name="atom">   8498.98412084 </i>
    <i name="e_fr_energy">   -531.84114504 </i>
    <i name="e_wo_entrp">   -531.84114504 </i>
    <i name="e_0_energy">   -531.84114504 </i>
   </energy>
  </scstep>
  <scstep>
   <time name="dav">  251.79  254.16</time>
   <time name="total">  251.79  254.16</time>
   <energy>
    <i name="e_fr_energy">   -533.31453983 </i>
    <i name="e_wo_entrp">   -533.31453983 </i>
    <i name="e_0_energy">   -533.31453983 </i>
   </energy>
  </scstep>
  <scstep>
   <time name="dav">  277.24  279.87</time>
   <time name="total">  277.24  279.87</time>
   <energy>
    <i name="e_fr_energy">   -533.35015758 </i>
    <i name="e_wo_entrp">   -533.35015758 </i>
    <i name="e_0_energy">   -533.35015758 </i>
   </energy>
  </scstep>
  <scstep>
   <time name="dav">  253.09  255.51</time>
   <time name="total">  253.09  255.51</time>
   <energy>
    <i name="e_fr_energy">   -533.35094295 </i>
    <i name="e_wo_entrp">   -533.35094295 </i>
    <i name="e_0_energy">   -533.35094295 </i>
   </energy>
  </scstep>
  <scstep>
   <time name="dav">  260.10  262.59</time>
   <time name="total">  260.10  262.59</time>
   <energy>
    <i name="e_fr_energy">   -533.35097456 </i>
    <i name="e_wo_entrp">   -533.35097456 </i>
    <i name="e_0_energy">   -533.35097456 </i>
   </energy>
  </scstep>
  <scstep>
   <time name="dav">  197.90  199.79</time>
   <time name="total">  197.91  199.80</time>
   <energy>
    <i name="alphaZ">     45.67680759 </i>
    <i name="ewald">  25405.02350638 </i>
    <i name="hartreedc"> -32439.15739221 </i>
    <i name="XCdc">    800.87015015 </i>
    <i name="pawpsdc">  21190.86921015 </i>
    <i name="pawaedc"> -21230.54152223 </i>
    <i name="eentropy">     -0.00000000 </i>
    <i name="bandstr">  -2805.07585627 </i>
    <i name="atom">   8498.98412084 </i>
    <i name="e_fr_energy">   -533.35097559 </i>
    <i name="e_wo_entrp">   -533.35097559 </i>
    <i name="e_0_energy">   -533.35097559 </i>
   </energy>
  </scstep>
  <structure>
   <crystal>
    <varray name="basis" >
     <v>      16.72666448       0.25209068       0.00000000 </v>
     <v>       0.25063391      16.44086890       0.00000000 </v>
     <v>       0.00000000       0.00000000      20.00000000 </v>
    </varray>
    <i name="volume">   5498.75430746 </i>
    <varray name="rec_basis" >
     <v>       0.05979852      -0.00091160       0.00000000 </v>
     <v>      -0.00091690       0.06083801       0.00000000 </v>
     <v>       0.00000000       0.00000000       0.05000000 </v>
    </varray>
   </crystal>
   <varray name="positions" >
    <v>       0.95923893       0.87311741       0.43410470 </v>
    <v>       0.96272720       0.18188860       0.43051933 </v>
    <v>       0.03352557       0.72240519       0.41961001 </v>
    <v>       0.64953374       0.92606320       0.42830822 </v>
    <v>       0.24501548       0.99881743       0.30330557 </v>
    <v>       0.10921647       0.03504242       0.25812480 </v>
    <v>       0.81792306       0.04796558       0.28619403 </v>
    <v>       0.69726698       0.03115051       0.35628977 </v>
    <v>       0.96996526       0.11958940       0.30964748 </v>
    <v>       0.96464536       0.02120913       0.27702065 </v>
    <v>       0.84596857       0.01645895       0.53176807 </v>
    <v>       0.14667031       0.99100832       0.50158703 </v>
    <v>       0.98552652       0.75085661       0.62325321 </v>
    <v>       0.02799240       0.88043040       0.67529226 </v>
    <v>       0.03619907       0.17614701       0.67071929 </v>
    <v>       0.99738668       0.30771672       0.61607484 </v>
    <v>       0.02009611       0.02925561       0.66952059 </v>
    <v>       0.10875407       0.02293976       0.62304543 </v>
    <v>       0.85648008       0.44843983       0.47070601 </v>
    <v>       0.77159979       0.57319212       0.47249513 </v>
    <v>       0.81018825       0.66940120       0.44859918 </v>
    <v>       0.82890860       0.63168201       0.52934937 </v>
    <v>       0.04734373       0.33451148       0.41735745 </v>
    <v>       0.40820583       0.07668747       0.57184937 </v>
    <v>       0.53276707       0.11318824       0.62118907 </v>
    <v>       0.60893524       0.11951377       0.55822932 </v>
    <v>       0.61410146       0.04003570       0.61621769 </v>
    <v>       0.27988945       0.04165021       0.51671891 </v>
    <v>       0.69582069       0.01705553       0.48936554 </v>
    <v>       0.95938129       0.32941498       0.49278464 </v>
    <v>       0.28311365       0.97733554       0.42561679 </v>
    <v>       0.02858636       0.57089839       0.39956815 </v>
    <v>       0.03291132       0.49020210       0.39766533 </v>
    <v>       0.51301836       0.91881060       0.45890073 </v>
    <v>       0.43463467       0.92315366       0.46000926 </v>
    <v>       0.95120758       0.72788521       0.49947969 </v>
    <v>       0.97555074       0.87476871       0.48693155 </v>
    <v>       0.98049059       0.18016832       0.48300973 </v>
    <v>       0.06163533       0.02111070       0.42342338 </v>
    <v>       0.05142391       0.03386846       0.35451914 </v>
    <v>       0.90084155       0.03998411       0.36873602 </v>
    <v>       0.90908567       0.02960518       0.43802042 </v>
    <v>       0.75657894       0.02977575       0.37900419 </v>
    <v>       0.76411660       0.02158923       0.44903219 </v>
    <v>       0.84041074       0.02281121       0.47763580 </v>
    <v>       0.13858602       0.00310431       0.44830816 </v>
    <v>       0.20501273       0.99643212       0.40560819 </v>
    <v>       0.19344965       0.00661562       0.33624041 </v>
    <v>       0.99115175       0.02633074       0.47302457 </v>
    <v>       0.96722824       0.61013699       0.43131737 </v>
    <v>       0.98453529       0.69496808       0.44795212 </v>
    <v>       0.39780429       0.98433026       0.49529991 </v>
    <v>       0.55787211       0.97218078       0.49374563 </v>
    <v>       0.64040091       0.96967835       0.46985587 </v>
    <v>       0.97538684       0.44840229       0.42878077 </v>
    <v>       0.82414334       0.03972101       0.34019219 </v>
    <v>       0.11800950       0.02641004       0.31182363 </v>
    <v>       0.97127200       0.05462771       0.32440097 </v>
    <v>       0.31287910       0.00153325       0.48102960 </v>
    <v>       0.99793805       0.10507611       0.51431840 </v>
    <v>       0.01989193       0.10404868       0.58192133 </v>
    <v>       0.01593986       0.95055507       0.58440783 </v>
    <v>       0.99471333       0.94914382       0.51670832 </v>
    <v>       0.97320193       0.80325672       0.52466851 </v>
    <v>       0.98984616       0.80627922       0.59372248 </v>
    <v>       0.01293555       0.87854993       0.62216166 </v>
    <v>       0.02044946       0.17760813       0.61769394 </v>
    <v>       0.99945649       0.25101614       0.58779058 </v>
    <v>       0.98106945       0.25308060       0.51902431 </v>
    <v>       0.04279605       0.02668788       0.61781435 </v>
    <v>       0.90420716       0.48595240       0.45181675 </v>
    <v>       0.89761799       0.57011414       0.45289470 </v>
    <v>       0.82271827       0.61323542       0.47684067 </v>
    <v>       0.99571123       0.36262832       0.44395175 </v>
    <v>       0.44021503       0.03266756       0.53986930 </v>
    <v>       0.52346920       0.02702694       0.54105393 </v>
    <v>       0.57173135       0.07799639       0.58696311 </v>
   </varray>
  </structure>
  <varray name="forces" >
   <v>      -0.00111923       0.00373881       0.00140418 </v>
   <v>      -0.00061546      -0.00269469       0.00283478 </v>
   <v>       0.00006181       0.00160859       0.00032156 </v>
   <v>       0.00296540       0.00451078       0.00494048 </v>
   <v>       0.00391339       0.00137248      -0.00350685 </v>
   <v>      -0.00084550      -0.00121888      -0.00026419 </v>
   <v>       0.00165368       0.00033036       0.00499337 </v>
   <v>      -0.00141468       0.00192685       0.00024764 </v>
   <v>      -0.00101732      -0.00821368      -0.00326981 </v>
   <v>       0.00373958       0.00434554       0.00994369 </v>
   <v>       0.00235817      -0.00092208      -0.00648424 </v>
   <v>       0.00026018      -0.00009508      -0.00912124 </v>
   <v>       0.00140878      -0.00055652      -0.00190147 </v>
   <v>       0.00053780       0.00011742      -0.00299410 </v>
   <v>       0.00043124       0.00142676      -0.00337339 </v>
   <v>       0.00038278      -0.00172614      -0.00219435 </v>
   <v>       0.00146744       0.00073101      -0.00489726 </v>
   <v>       0.00067145       0.00045602       0.00470324 </v>
   <v>      -0.00481283      -0.00074356       0.00151267 </v>
   <v>      -0.00146047       0.00050608       0.00198207 </v>
   <v>      -0.00159305      -0.00121106       0.00177807 </v>
   <v>       0.00060913       0.00104656       0.00189619 </v>
   <v>      -0.00229813      -0.00332170      -0.00229023 </v>
   <v>       0.00338858      -0.00350913      -0.00083930 </v>
   <v>       0.00280682       0.00238778       0.00093194 </v>
   <v>       0.00297225       0.00434922       0.00114630 </v>
   <v>       0.00458224       0.00092444       0.00218903 </v>
   <v>      -0.00401078      -0.00132553       0.00492742 </v>
   <v>      -0.02976849       0.00858761      -0.00052422 </v>
   <v>      -0.00248819       0.00502880      -0.00581058 </v>
   <v>       0.02134532      -0.00706855       0.01742437 </v>
   <v>       0.00060582      -0.00213888       0.00619359 </v>
   <v>       0.00007907      -0.00286752       0.00274691 </v>
   <v>       0.00346187       0.00449163      -0.00449440 </v>
   <v>      -0.00832650      -0.00128139       0.00112347 </v>
   <v>      -0.00232338      -0.00775795      -0.01259110 </v>
   <v>      -0.00906052      -0.00200794      -0.01146234 </v>
   <v>      -0.00897464       0.00153987      -0.01232385 </v>
   <v>      -0.01201449      -0.00011991      -0.03255115 </v>
   <v>       0.00954365      -0.02879437       0.04782183 </v>
   <v>       0.00184605      -0.02601436       0.04634838 </v>
   <v>       0.00997012      -0.00040108      -0.02400726 </v>
   <v>       0.00177800       0.00553254      -0.00061182 </v>
   <v>       0.02404407      -0.00482464       0.00639658 </v>
   <v>      -0.00599696      -0.00939505       0.01167956 </v>
   <v>       0.01774385      -0.00492155       0.01057411 </v>
   <v>      -0.02321822       0.01012605       0.00665367 </v>
   <v>       0.00333442       0.00377869      -0.00050291 </v>
   <v>       0.00177867      -0.00220292      -0.00710594 </v>
   <v>      -0.00563921      -0.00605432      -0.00303303 </v>
   <v>      -0.00089308       0.00386588       0.00381475 </v>
   <v>       0.02236472      -0.00792115      -0.00077703 </v>
   <v>      -0.02043771      -0.00684525      -0.00017493 </v>
   <v>       0.02883288      -0.00405623       0.00168035 </v>
   <v>      -0.01159485       0.00615234       0.00167560 </v>
   <v>       0.00650307      -0.00803751      -0.00925412 </v>
   <v>      -0.01365231      -0.01059724      -0.00391578 </v>
   <v>      -0.00528748       0.08188934      -0.08483261 </v>
   <v>      -0.02022009       0.00408485      -0.01538700 </v>
   <v>       0.00351993      -0.00414872       0.02480557 </v>
   <v>      -0.01915849       0.00042420      -0.02043643 </v>
   <v>      -0.01849747      -0.00215015      -0.01825123 </v>
   <v>       0.00109397       0.00653327       0.01811345 </v>
   <v>       0.00712171       0.00069139       0.00593418 </v>
   <v>       0.00324271       0.00070543      -0.00133074 </v>
   <v>      -0.00449203       0.00522996       0.00107552 </v>
   <v>      -0.00544953      -0.00075145       0.00583491 </v>
   <v>       0.00223165      -0.00393574       0.00258378 </v>
   <v>       0.00572397       0.00060576       0.00353845 </v>
   <v>       0.04791536      -0.00390581       0.03194794 </v>
   <v>      -0.00150115      -0.00117649       0.00169436 </v>
   <v>      -0.00358768      -0.00116793      -0.00174269 </v>
   <v>      -0.00177790       0.00191491       0.00167471 </v>
   <v>       0.00057563      -0.00286765       0.00530874 </v>
   <v>      -0.01069803       0.00675649      -0.00151083 </v>
   <v>       0.01012087       0.00105611       0.00122301 </v>
   <v>      -0.00474225       0.00017600       0.00014799 </v>
  </varray>
  <varray name="stress" >
   <v>       0.00380272       0.02576353       0.01188741 </v>
   <v>       0.02576353      -0.06066854      -0.02041628 </v>
   <v>       0.01188741      -0.02041628      -0.30694171 </v>
  </varray>
  <energy>
   <i name="e_fr_energy">   -535.07829805 </i>
   <i name="e_wo_entrp">   -535.07829805 </i>
   <i name="e_0_energy">     -0.00000000 </i>
  </energy>
  <time name="totalsc"> 1680.29 1696.69</time>
  <eigenvalues>
   <array>
    <dimension dim="1">band</dimension>
    <dimension dim="2">kpoint</dimension>
    <dimension dim="3">spin</dimension>
    <field>eigene</field>
    <field>occ</field>
    <set>
     <set comment="spin 1">
      <set comment="kpoint 1">
       <r>  -25.0046    1.0000 </r>
       <r>  -24.9279    1.0000 </r>
       <r>  -23.0409    1.0000 </r>
       <r>  -22.9719    1.0000 </r>
       <r>  -22.9653    1.0000 </r>
       <r>  -22.8395    1.0000 </r>
       <r>  -21.6710    1.0000 </r>
       <r>  -20.9243    1.0000 </r>
       <r>  -20.7234    1.0000 </r>
       <r>  -20.6914    1.0000 </r>
       <r>  -20.3231    1.0000 </r>
       <r>  -20.2266    1.0000 </r>
       <r>  -20.0386    1.0000 </r>
       <r>  -20.0161    1.0000 </r>
       <r>  -19.4949    1.0000 </r>
       <r>  -19.1249    1.0000 </r>
       <r>  -19.0574    1.0000 </r>
       <r>  -18.0027    1.0000 </r>
       <r>  -17.9927    1.0000 </r>
       <r>  -17.8403    1.0000 </r>
       <r>  -17.7777    1.0000 </r>
       <r>  -17.7611    1.0000 </r>
       <r>  -17.6226    1.0000 </r>
       <r>  -17.5644    1.0000 </r>
       <r>  -17.0502    1.0000 </r>
       <r>  -16.9310    1.0000 </r>
       <r>  -16.4563    1.0000 </r>
       <r>  -15.8301    1.0000 </r>
       <r>  -15.6836    1.0000 </r>
       <r>  -15.5657    1.0000 </r>
       <r>  -15.4197    1.0000 </r>
       <r>  -15.0945    1.0000 </r>
       <r>  -14.9463    1.0000 </r>
       <r>  -14.7951    1.0000 </r>
       <r>  -14.3941    1.0000 </r>
       <r>  -14.3244    1.0000 </r>
       <r>  -14.1980    1.0000 </r>
       <r>  -13.8011    1.0000 </r>
       <r>  -13.7464    1.0000 </r>
       <r>  -13.7003    1.0000 </r>
       <r>  -13.6355    1.0000 </r>
       <r>  -12.9576    1.0000 </r>
       <r>  -12.9199    1.0000 </r>
       <r>  -12.7244    1.0000 </r>
       <r>  -12.3302    1.0000 </r>
       <r>  -12.3047    1.0000 </r>
       <r>  -11.9550    1.0000 </r>
       <r>  -11.8147    1.0000 </r>
       <r>  -11.6841    1.0000 </r>
       <r>  -11.5925    1.0000 </r>
       <r>  -11.5361    1.0000 </r>
       <r>  -11.4067    1.0000 </r>
       <r>  -11.2604    1.0000 </r>
       <r>  -11.1038    1.0000 </r>
       <r>  -10.9543    1.0000 </r>
       <r>  -10.8284    1.0000 </r>
       <r>  -10.7222    1.0000 </r>
       <r>  -10.6354    1.0000 </r>
       <r>  -10.5897    1.0000 </r>
       <r>  -10.5615    1.0000 </r>
       <r>  -10.5314    1.0000 </r>
       <r>  -10.4714    1.0000 </r>
       <r>  -10.3596    1.0000 </r>
       <r>  -10.3113    1.0000 </r>
       <r>  -10.0050    1.0000 </r>
       <r>   -9.8455    1.0000 </r>
       <r>   -9.7583    1.0000 </r>
       <r>   -9.7151    1.0000 </r>
       <r>   -9.6798    1.0000 </r>
       <r>   -9.6264    1.0000 </r>
       <r>   -9.5430    1.0000 </r>
       <r>   -9.5207    1.0000 </r>
       <r>   -9.4653    1.0000 </r>
       <r>   -9.4322    1.0000 </r>
       <r>   -9.3938    1.0000 </r>
       <r>   -9.3680    1.0000 </r>
       <r>   -9.3228    1.0000 </r>
       <r>   -9.1978    1.0000 </r>
       <r>   -9.0754    1.0000 </r>
       <r>   -9.0071    1.0000 </r>
       <r>   -8.8370    1.0000 </r>
       <r>   -8.7937    1.0000 </r>
       <r>   -8.7786    1.0000 </r>
       <r>   -8.7193    1.0000 </r>
       <r>   -8.4954    1.0000 </r>
       <r>   -8.3919    1.0000 </r>
       <r>   -8.2700    1.0000 </r>
       <r>   -8.1472    1.0000 </r>
       <r>   -7.9261    1.0000 </r>
       <r>   -7.8812    1.0000 </r>
       <r>   -7.8498    1.0000 </r>
       <r>   -7.6979    1.0000 </r>
       <r>   -7.6560    1.0000 </r>
       <r>   -7.4335    1.0000 </r>
       <r>   -7.3209    1.0000 </r>
       <r>   -7.0915    1.0000 </r>
       <r>   -7.0349    1.0000 </r>
       <r>   -6.9558    1.0000 </r>
       <r>   -6.8110    1.0000 </r>
       <r>   -6.7323    1.0000 </r>
       <r>   -6.6028    1.0000 </r>
       <r>   -6.5263    1.0000 </r>
       <r>   -6.2601    1.0000 </r>
       <r>   -6.0591    1.0000 </r>
       <r>   -5.9941    1.0000 </r>
       <r>   -5.8165    1.0000 </r>
       <r>   -5.6939    1.0000 </r>
       <r>   -5.5382    1.0000 </r>
       <r>   -5.5303    1.0000 </r>
       <r>   -5.2423    1.0000 </r>
       <r>   -4.9289    1.0000 </r>
       <r>   -4.8997    1.0000 </r>
       <r>   -4.8849    1.0000 </r>
       <r>   -4.8449    1.0000 </r>
       <r>   -4.7054    1.0000 </r>
       <r>   -4.5026    1.0000 </r>
       <r>   -2.7234    0.0000 </r>
       <r>   -2.6280    0.0000 </r>
       <r>   -1.8200    0.0000 </r>
       <r>   -1.6517    0.0000 </r>
       <r>   -1.4432    0.0000 </r>
       <r>   -1.3073    0.0000 </r>
       <r>   -1.0016    0.0000 </r>
       <r>   -0.9724    0.0000 </r>
       <r>   -0.8102    0.0000 </r>
       <r>   -0.5673    0.0000 </r>
       <r>   -0.3913    0.0000 </r>
       <r>   -0.3272    0.0000 </r>
       <r>   -0.1196    0.0000 </r>
       <r>   -0.0891    0.0000 </r>
       <r>    0.0930    0.0000 </r>
       <r>    0.2756    0.0000 </r>
       <r>    0.3007    0.0000 </r>
       <r>    0.3510    0.0000 </r>
       <r>    0.3868    0.0000 </r>
       <r>    0.5029    0.0000 </r>
       <r>    0.5408    0.0000 </r>
       <r>    0.5928    0.0000 </r>
       <r>    0.6917    0.0000 </r>
       <r>    0.7416    0.0000 </r>
       <r>    0.7727    0.0000 </r>
       <r>    0.8288    0.0000 </r>
       <r>    0.8678    0.0000 </r>
       <r>    0.9341    0.0000 </r>
       <r>    0.9648    0.0000 </r>
       <r>    1.0490    0.0000 </r>
       <r>    1.0920    0.0000 </r>
       <r>    1.2057    0.0000 </r>
       <r>    1.2672    0.0000 </r>
       <r>    1.2802    0.0000 </r>
       <r>    1.3405    0.0000 </r>
       <r>    1.3913    0.0000 </r>
       <r>    1.4262    0.0000 </r>
       <r>    1.4690    0.0000 </r>
       <r>    1.5488    0.0000 </r>
       <r>    1.5850    0.0000 </r>
       <r>    1.6403    0.0000 </r>
       <r>    1.6875    0.0000 </r>
       <r>    1.7162    0.0000 </r>
       <r>    1.7750    0.0000 </r>
      </set>
      <set comment="kpoint 2">
       <r>  -25.0046    1.0000 </r>
       <r>  -24.9279    1.0000 </r>
       <r>  -23.0409    1.0000 </r>
       <r>  -22.9719    1.0000 </r>
       <r>  -22.9653    1.0000 </r>
       <r>  -22.8395    1.0000 </r>
       <r>  -21.6711    1.0000 </r>
       <r>  -20.9245    1.0000 </r>
       <r>  -20.7234    1.0000 </r>
       <r>  -20.6907    1.0000 </r>
       <r>  -20.3232    1.0000 </r>
       <r>  -20.2266    1.0000 </r>
       <r>  -20.0387    1.0000 </r>
       <r>  -20.0171    1.0000 </r>
       <r>  -19.4947    1.0000 </r>
       <r>  -19.1246    1.0000 </r>
       <r>  -19.0567    1.0000 </r>
       <r>  -18.0028    1.0000 </r>
       <r>  -17.9927    1.0000 </r>
       <r>  -17.8403    1.0000 </r>
       <r>  -17.7841    1.0000 </r>
       <r>  -17.7590    1.0000 </r>
       <r>  -17.6195    1.0000 </r>
       <r>  -17.5643    1.0000 </r>
       <r>  -17.0494    1.0000 </r>
       <r>  -16.9304    1.0000 </r>
       <r>  -16.4561    1.0000 </r>
       <r>  -15.8318    1.0000 </r>
       <r>  -15.6857    1.0000 </r>
       <r>  -15.5644    1.0000 </r>
       <r>  -15.4192    1.0000 </r>
       <r>  -15.0944    1.0000 </r>
       <r>  -14.9447    1.0000 </r>
       <r>  -14.7951    1.0000 </r>
       <r>  -14.3942    1.0000 </r>
       <r>  -14.3244    1.0000 </r>
       <r>  -14.1980    1.0000 </r>
       <r>  -13.8054    1.0000 </r>
       <r>  -13.7495    1.0000 </r>
       <r>  -13.6937    1.0000 </r>
       <r>  -13.6352    1.0000 </r>
       <r>  -12.9582    1.0000 </r>
       <r>  -12.9201    1.0000 </r>
       <r>  -12.7235    1.0000 </r>
       <r>  -12.3301    1.0000 </r>
       <r>  -12.3047    1.0000 </r>
       <r>  -11.9555    1.0000 </r>
       <r>  -11.8150    1.0000 </r>
       <r>  -11.6839    1.0000 </r>
       <r>  -11.5930    1.0000 </r>
       <r>  -11.5377    1.0000 </r>
       <r>  -11.4030    1.0000 </r>
       <r>  -11.2604    1.0000 </r>
       <r>  -11.1038    1.0000 </r>
       <r>  -10.9557    1.0000 </r>
       <r>  -10.8284    1.0000 </r>
       <r>  -10.7226    1.0000 </r>
       <r>  -10.6352    1.0000 </r>
       <r>  -10.5897    1.0000 </r>
       <r>  -10.5615    1.0000 </r>
       <r>  -10.5313    1.0000 </r>
       <r>  -10.4715    1.0000 </r>
       <r>  -10.3595    1.0000 </r>
       <r>  -10.3113    1.0000 </r>
       <r>  -10.0050    1.0000 </r>
       <r>   -9.8455    1.0000 </r>
       <r>   -9.7586    1.0000 </r>
       <r>   -9.7153    1.0000 </r>
       <r>   -9.6794    1.0000 </r>
       <r>   -9.6263    1.0000 </r>
       <r>   -9.5429    1.0000 </r>
       <r>   -9.5205    1.0000 </r>
       <r>   -9.4653    1.0000 </r>
       <r>   -9.4322    1.0000 </r>
       <r>   -9.3938    1.0000 </r>
       <r>   -9.3681    1.0000 </r>
       <r>   -9.3228    1.0000 </r>
       <r>   -9.1979    1.0000 </r>
       <r>   -9.0752    1.0000 </r>
       <r>   -9.0071    1.0000 </r>
       <r>   -8.8371    1.0000 </r>
       <r>   -8.7939    1.0000 </r>
       <r>   -8.7783    1.0000 </r>
       <r>   -8.7193    1.0000 </r>
       <r>   -8.4954    1.0000 </r>
       <r>   -8.3919    1.0000 </r>
       <r>   -8.2700    1.0000 </r>
       <r>   -8.1470    1.0000 </r>
       <r>   -7.9264    1.0000 </r>
       <r>   -7.8812    1.0000 </r>
       <r>   -7.8496    1.0000 </r>
       <r>   -7.6976    1.0000 </r>
       <r>   -7.6559    1.0000 </r>
       <r>   -7.4338    1.0000 </r>
       <r>   -7.3218    1.0000 </r>
       <r>   -7.0915    1.0000 </r>
       <r>   -7.0342    1.0000 </r>
       <r>   -6.9558    1.0000 </r>
       <r>   -6.8113    1.0000 </r>
       <r>   -6.7323    1.0000 </r>
       <r>   -6.6017    1.0000 </r>
       <r>   -6.5262    1.0000 </r>
       <r>   -6.2601    1.0000 </r>
       <r>   -6.0591    1.0000 </r>
       <r>   -5.9947    1.0000 </r>
       <r>   -5.8164    1.0000 </r>
       <r>   -5.6939    1.0000 </r>
       <r>   -5.5383    1.0000 </r>
       <r>   -5.5302    1.0000 </r>
       <r>   -5.2423    1.0000 </r>
       <r>   -4.9304    1.0000 </r>
       <r>   -4.9046    1.0000 </r>
       <r>   -4.8786    1.0000 </r>
       <r>   -4.8447    1.0000 </r>
       <r>   -4.7054    1.0000 </r>
       <r>   -4.5026    1.0000 </r>
       <r>   -2.7234    0.0000 </r>
       <r>   -2.6280    0.0000 </r>
       <r>   -1.8201    0.0000 </r>
       <r>   -1.6517    0.0000 </r>
       <r>   -1.4431    0.0000 </r>
       <r>   -1.3079    0.0000 </r>
       <r>   -1.0015    0.0000 </r>
       <r>   -0.9717    0.0000 </r>
       <r>   -0.8102    0.0000 </r>
       <r>   -0.5674    0.0000 </r>
       <r>   -0.3913    0.0000 </r>
       <r>   -0.3272    0.0000 </r>
       <r>   -0.1195    0.0000 </r>
       <r>   -0.0888    0.0000 </r>
       <r>    0.0931    0.0000 </r>
       <r>    0.2742    0.0000 </r>
       <r>    0.2979    0.0000 </r>
       <r>    0.3532    0.0000 </r>
       <r>    0.3874    0.0000 </r>
       <r>    0.5030    0.0000 </r>
       <r>    0.5409    0.0000 </r>
       <r>    0.5934    0.0000 </r>
       <r>    0.6897    0.0000 </r>
       <r>    0.7425    0.0000 </r>
       <r>    0.7731    0.0000 </r>
       <r>    0.8309    0.0000 </r>
       <r>    0.8675    0.0000 </r>
       <r>    0.9325    0.0000 </r>
       <r>    0.9650    0.0000 </r>
       <r>    1.0503    0.0000 </r>
       <r>    1.0914    0.0000 </r>
       <r>    1.2059    0.0000 </r>
       <r>    1.2659    0.0000 </r>
       <r>    1.2808    0.0000 </r>
       <r>    1.3420    0.0000 </r>
       <r>    1.3913    0.0000 </r>
       <r>    1.4263    0.0000 </r>
       <r>    1.4704    0.0000 </r>
       <r>    1.5477    0.0000 </r>
       <r>    1.5839    0.0000 </r>
       <r>    1.6386    0.0000 </r>
       <r>    1.6900    0.0000 </r>
       <r>    1.7161    0.0000 </r>
       <r>    1.7751    0.0000 </r>
      </set>
      <set comment="kpoint 3">
       <r>  -25.0046    1.0000 </r>
       <r>  -24.9279    1.0000 </r>
       <r>  -23.0409    1.0000 </r>
       <r>  -22.9720    1.0000 </r>
       <r>  -22.9652    1.0000 </r>
       <r>  -22.8394    1.0000 </r>
       <r>  -21.6712    1.0000 </r>
       <r>  -20.9251    1.0000 </r>
       <r>  -20.7234    1.0000 </r>
       <r>  -20.6886    1.0000 </r>
       <r>  -20.3233    1.0000 </r>
       <r>  -20.2267    1.0000 </r>
       <r>  -20.0388    1.0000 </r>
       <r>  -20.0200    1.0000 </r>
       <r>  -19.4940    1.0000 </r>
       <r>  -19.1236    1.0000 </r>
       <r>  -19.0546    1.0000 </r>
       <r>  -18.0032    1.0000 </r>
       <r>  -17.9928    1.0000 </r>
       <r>  -17.8403    1.0000 </r>
       <r>  -17.7986    1.0000 </r>
       <r>  -17.7563    1.0000 </r>
       <r>  -17.6113    1.0000 </r>
       <r>  -17.5639    1.0000 </r>
       <r>  -17.0470    1.0000 </r>
       <r>  -16.9286    1.0000 </r>
       <r>  -16.4556    1.0000 </r>
       <r>  -15.8369    1.0000 </r>
       <r>  -15.6913    1.0000 </r>
       <r>  -15.5607    1.0000 </r>
       <r>  -15.4177    1.0000 </r>
       <r>  -15.0943    1.0000 </r>
       <r>  -14.9397    1.0000 </r>
       <r>  -14.7950    1.0000 </r>
       <r>  -14.3945    1.0000 </r>
       <r>  -14.3246    1.0000 </r>
       <r>  -14.1982    1.0000 </r>
       <r>  -13.8176    1.0000 </r>
       <r>  -13.7543    1.0000 </r>
       <r>  -13.6791    1.0000 </r>
       <r>  -13.6342    1.0000 </r>
       <r>  -12.9601    1.0000 </r>
       <r>  -12.9206    1.0000 </r>
       <r>  -12.7210    1.0000 </r>
       <r>  -12.3297    1.0000 </r>
       <r>  -12.3045    1.0000 </r>
       <r>  -11.9573    1.0000 </r>
       <r>  -11.8160    1.0000 </r>
       <r>  -11.6836    1.0000 </r>
       <r>  -11.5946    1.0000 </r>
       <r>  -11.5416    1.0000 </r>
       <r>  -11.3928    1.0000 </r>
       <r>  -11.2603    1.0000 </r>
       <r>  -11.1037    1.0000 </r>
       <r>  -10.9599    1.0000 </r>
       <r>  -10.8285    1.0000 </r>
       <r>  -10.7237    1.0000 </r>
       <r>  -10.6344    1.0000 </r>
       <r>  -10.5896    1.0000 </r>
       <r>  -10.5616    1.0000 </r>
       <r>  -10.5310    1.0000 </r>
       <r>  -10.4716    1.0000 </r>
       <r>  -10.3592    1.0000 </r>
       <r>  -10.3113    1.0000 </r>
       <r>  -10.0048    1.0000 </r>
       <r>   -9.8455    1.0000 </r>
       <r>   -9.7594    1.0000 </r>
       <r>   -9.7159    1.0000 </r>
       <r>   -9.6783    1.0000 </r>
       <r>   -9.6262    1.0000 </r>
       <r>   -9.5427    1.0000 </r>
       <r>   -9.5200    1.0000 </r>
       <r>   -9.4653    1.0000 </r>
       <r>   -9.4323    1.0000 </r>
       <r>   -9.3940    1.0000 </r>
       <r>   -9.3682    1.0000 </r>
       <r>   -9.3228    1.0000 </r>
       <r>   -9.1980    1.0000 </r>
       <r>   -9.0747    1.0000 </r>
       <r>   -9.0072    1.0000 </r>
       <r>   -8.8373    1.0000 </r>
       <r>   -8.7946    1.0000 </r>
       <r>   -8.7775    1.0000 </r>
       <r>   -8.7193    1.0000 </r>
       <r>   -8.4957    1.0000 </r>
       <r>   -8.3919    1.0000 </r>
       <r>   -8.2700    1.0000 </r>
       <r>   -8.1464    1.0000 </r>
       <r>   -7.9273    1.0000 </r>
       <r>   -7.8812    1.0000 </r>
       <r>   -7.8491    1.0000 </r>
       <r>   -7.6967    1.0000 </r>
       <r>   -7.6559    1.0000 </r>
       <r>   -7.4347    1.0000 </r>
       <r>   -7.3246    1.0000 </r>
       <r>   -7.0914    1.0000 </r>
       <r>   -7.0321    1.0000 </r>
       <r>   -6.9558    1.0000 </r>
       <r>   -6.8123    1.0000 </r>
       <r>   -6.7324    1.0000 </r>
       <r>   -6.5986    1.0000 </r>
       <r>   -6.5258    1.0000 </r>
       <r>   -6.2602    1.0000 </r>
       <r>   -6.0592    1.0000 </r>
       <r>   -5.9966    1.0000 </r>
       <r>   -5.8163    1.0000 </r>
       <r>   -5.6939    1.0000 </r>
       <r>   -5.5388    1.0000 </r>
       <r>   -5.5301    1.0000 </r>
       <r>   -5.2423    1.0000 </r>
       <r>   -4.9354    1.0000 </r>
       <r>   -4.9106    1.0000 </r>
       <r>   -4.8679    1.0000 </r>
       <r>   -4.8442    1.0000 </r>
       <r>   -4.7054    1.0000 </r>
       <r>   -4.5027    1.0000 </r>
       <r>   -2.7234    0.0000 </r>
       <r>   -2.6280    0.0000 </r>
       <r>   -1.8202    0.0000 </r>
       <r>   -1.6517    0.0000 </r>
       <r>   -1.4430    0.0000 </r>
       <r>   -1.3097    0.0000 </r>
       <r>   -1.0012    0.0000 </r>
       <r>   -0.9697    0.0000 </r>
       <r>   -0.8104    0.0000 </r>
       <r>   -0.5676    0.0000 </r>
       <r>   -0.3914    0.0000 </r>
       <r>   -0.3269    0.0000 </r>
       <r>   -0.1190    0.0000 </r>
       <r>   -0.0879    0.0000 </r>
       <r>    0.0932    0.0000 </r>
       <r>    0.2699    0.0000 </r>
       <r>    0.2911    0.0000 </r>
       <r>    0.3584    0.0000 </r>
       <r>    0.3891    0.0000 </r>
       <r>    0.5032    0.0000 </r>
       <r>    0.5411    0.0000 </r>
       <r>    0.5950    0.0000 </r>
       <r>    0.6844    0.0000 </r>
       <r>    0.7450    0.0000 </r>
       <r>    0.7744    0.0000 </r>
       <r>    0.8367    0.0000 </r>
       <r>    0.8666    0.0000 </r>
       <r>    0.9279    0.0000 </r>
       <r>    0.9656    0.0000 </r>
       <r>    1.0539    0.0000 </r>
       <r>    1.0899    0.0000 </r>
       <r>    1.2063    0.0000 </r>
       <r>    1.2624    0.0000 </r>
       <r>    1.2828    0.0000 </r>
       <r>    1.3463    0.0000 </r>
       <r>    1.3909    0.0000 </r>
       <r>    1.4270    0.0000 </r>
       <r>    1.4742    0.0000 </r>
       <r>    1.5446    0.0000 </r>
       <r>    1.5808    0.0000 </r>
       <r>    1.6341    0.0000 </r>
       <r>    1.6961    0.0000 </r>
       <r>    1.7159    0.0000 </r>
       <r>    1.7750    0.0000 </r>
      </set>
      <set comment="kpoint 4">
       <r>  -25.0046    1.0000 </r>
       <r>  -24.9279    1.0000 </r>
       <r>  -23.0409    1.0000 </r>
       <r>  -22.9721    1.0000 </r>
       <r>  -22.9652    1.0000 </r>
       <r>  -22.8393    1.0000 </r>
       <r>  -21.6715    1.0000 </r>
       <r>  -20.9260    1.0000 </r>
       <r>  -20.7234    1.0000 </r>
       <r>  -20.6852    1.0000 </r>
       <r>  -20.3235    1.0000 </r>
       <r>  -20.2267    1.0000 </r>
       <r>  -20.0392    1.0000 </r>
       <r>  -20.0246    1.0000 </r>
       <r>  -19.4930    1.0000 </r>
       <r>  -19.1220    1.0000 </r>
       <r>  -19.0510    1.0000 </r>
       <r>  -18.0038    1.0000 </r>
       <r>  -17.9929    1.0000 </r>
       <r>  -17.8404    1.0000 </r>
       <r>  -17.8176    1.0000 </r>
       <r>  -17.7546    1.0000 </r>
       <r>  -17.6001    1.0000 </r>
       <r>  -17.5629    1.0000 </r>
       <r>  -17.0432    1.0000 </r>
       <r>  -16.9255    1.0000 </r>
       <r>  -16.4546    1.0000 </r>
       <r>  -15.8458    1.0000 </r>
       <r>  -15.6990    1.0000 </r>
       <r>  -15.5557    1.0000 </r>
       <r>  -15.4153    1.0000 </r>
       <r>  -15.0940    1.0000 </r>
       <r>  -14.9314    1.0000 </r>
       <r>  -14.7950    1.0000 </r>
       <r>  -14.3952    1.0000 </r>
       <r>  -14.3249    1.0000 </r>
       <r>  -14.1983    1.0000 </r>
       <r>  -13.8355    1.0000 </r>
       <r>  -13.7575    1.0000 </r>
       <r>  -13.6629    1.0000 </r>
       <r>  -13.6315    1.0000 </r>
       <r>  -12.9633    1.0000 </r>
       <r>  -12.9213    1.0000 </r>
       <r>  -12.7169    1.0000 </r>
       <r>  -12.3290    1.0000 </r>
       <r>  -12.3043    1.0000 </r>
       <r>  -11.9601    1.0000 </r>
       <r>  -11.8180    1.0000 </r>
       <r>  -11.6830    1.0000 </r>
       <r>  -11.5973    1.0000 </r>
       <r>  -11.5459    1.0000 </r>
       <r>  -11.3778    1.0000 </r>
       <r>  -11.2600    1.0000 </r>
       <r>  -11.1037    1.0000 </r>
       <r>  -10.9668    1.0000 </r>
       <r>  -10.8285    1.0000 </r>
       <r>  -10.7255    1.0000 </r>
       <r>  -10.6332    1.0000 </r>
       <r>  -10.5895    1.0000 </r>
       <r>  -10.5617    1.0000 </r>
       <r>  -10.5305    1.0000 </r>
       <r>  -10.4719    1.0000 </r>
       <r>  -10.3587    1.0000 </r>
       <r>  -10.3113    1.0000 </r>
       <r>  -10.0045    1.0000 </r>
       <r>   -9.8456    1.0000 </r>
       <r>   -9.7607    1.0000 </r>
       <r>   -9.7168    1.0000 </r>
       <r>   -9.6766    1.0000 </r>
       <r>   -9.6260    1.0000 </r>
       <r>   -9.5424    1.0000 </r>
       <r>   -9.5192    1.0000 </r>
       <r>   -9.4652    1.0000 </r>
       <r>   -9.4324    1.0000 </r>
       <r>   -9.3944    1.0000 </r>
       <r>   -9.3684    1.0000 </r>
       <r>   -9.3228    1.0000 </r>
       <r>   -9.1983    1.0000 </r>
       <r>   -9.0738    1.0000 </r>
       <r>   -9.0074    1.0000 </r>
       <r>   -8.8377    1.0000 </r>
       <r>   -8.7957    1.0000 </r>
       <r>   -8.7762    1.0000 </r>
       <r>   -8.7192    1.0000 </r>
       <r>   -8.4960    1.0000 </r>
       <r>   -8.3919    1.0000 </r>
       <r>   -8.2701    1.0000 </r>
       <r>   -8.1454    1.0000 </r>
       <r>   -7.9289    1.0000 </r>
       <r>   -7.8812    1.0000 </r>
       <r>   -7.8483    1.0000 </r>
       <r>   -7.6952    1.0000 </r>
       <r>   -7.6558    1.0000 </r>
       <r>   -7.4362    1.0000 </r>
       <r>   -7.3289    1.0000 </r>
       <r>   -7.0914    1.0000 </r>
       <r>   -7.0287    1.0000 </r>
       <r>   -6.9558    1.0000 </r>
       <r>   -6.8138    1.0000 </r>
       <r>   -6.7326    1.0000 </r>
       <r>   -6.5936    1.0000 </r>
       <r>   -6.5252    1.0000 </r>
       <r>   -6.2603    1.0000 </r>
       <r>   -6.0594    1.0000 </r>
       <r>   -5.9996    1.0000 </r>
       <r>   -5.8162    1.0000 </r>
       <r>   -5.6938    1.0000 </r>
       <r>   -5.5395    1.0000 </r>
       <r>   -5.5298    1.0000 </r>
       <r>   -5.2422    1.0000 </r>
       <r>   -4.9437    1.0000 </r>
       <r>   -4.9140    1.0000 </r>
       <r>   -4.8575    1.0000 </r>
       <r>   -4.8423    1.0000 </r>
       <r>   -4.7054    1.0000 </r>
       <r>   -4.5029    1.0000 </r>
       <r>   -2.7234    0.0000 </r>
       <r>   -2.6279    0.0000 </r>
       <r>   -1.8203    0.0000 </r>
       <r>   -1.6517    0.0000 </r>
       <r>   -1.4428    0.0000 </r>
       <r>   -1.3125    0.0000 </r>
       <r>   -1.0007    0.0000 </r>
       <r>   -0.9664    0.0000 </r>
       <r>   -0.8108    0.0000 </r>
       <r>   -0.5680    0.0000 </r>
       <r>   -0.3914    0.0000 </r>
       <r>   -0.3266    0.0000 </r>
       <r>   -0.1183    0.0000 </r>
       <r>   -0.0863    0.0000 </r>
       <r>    0.0935    0.0000 </r>
       <r>    0.2630    0.0000 </r>
       <r>    0.2820    0.0000 </r>
       <r>    0.3645    0.0000 </r>
       <r>    0.3919    0.0000 </r>
       <r>    0.5037    0.0000 </r>
[...]
       <r>   -25.6569     0.0000     0.0000 </r>
       <r>   -25.5586     0.0000     0.0000 </r>
       <r>   -25.4603     0.0000     0.0000 </r>
       <r>   -25.3620     0.0000     0.0000 </r>
       <r>   -25.2637     0.0000     0.0000 </r>
       <r>   -25.1654     0.0000     0.0000 </r>
       <r>   -25.0671     0.0000     0.0000 </r>
       <r>   -24.9688    20.3464     2.0000 </r>
       <r>   -24.8705    20.3464     4.0000 </r>
       <r>   -24.7722     0.0000     4.0000 </r>
       <r>   -24.6739     0.0000     4.0000 </r>
       <r>   -24.5756     0.0000     4.0000 </r>
       <r>   -24.4773     0.0000     4.0000 </r>
       <r>   -24.3790     0.0000     4.0000 </r>
       <r>   -24.2807     0.0000     4.0000 </r>
       <r>   -24.1824     0.0000     4.0000 </r>
       <r>   -24.0841     0.0000     4.0000 </r>
       <r>   -23.9859     0.0000     4.0000 </r>
       <r>   -23.8876     0.0000     4.0000 </r>
       <r>   -23.7893     0.0000     4.0000 </r>
       <r>   -23.6910     0.0000     4.0000 </r>
       <r>   -23.5927     0.0000     4.0000 </r>
       <r>   -23.4944     0.0000     4.0000 </r>
       <r>   -23.3961     0.0000     4.0000 </r>
       <r>   -23.2978     0.0000     4.0000 </r>
       <r>   -23.1995     0.0000     4.0000 </r>
       <r>   -23.1012     0.0000     4.0000 </r>
       <r>   -23.0029    20.3467     6.0000 </r>
       <r>   -22.9046    40.6926    10.0000 </r>
       <r>   -22.8063    20.3462    12.0000 </r>
       <r>   -22.7080     0.0000    12.0000 </r>
       <r>   -22.6097     0.0000    12.0000 </r>
       <r>   -22.5114     0.0000    12.0000 </r>
       <r>   -22.4131     0.0000    12.0000 </r>
       <r>   -22.3148     0.0000    12.0000 </r>
       <r>   -22.2165     0.0000    12.0000 </r>
       <r>   -22.1182     0.0000    12.0000 </r>
       <r>   -22.0199     0.0000    12.0000 </r>
       <r>   -21.9216     0.0000    12.0000 </r>
       <r>   -21.8233     0.0000    12.0000 </r>
       <r>   -21.7250     0.0000    12.0000 </r>
       <r>   -21.6267    20.3464    14.0000 </r>
       <r>   -21.5284     0.0000    14.0000 </r>
       <r>   -21.4301     0.0000    14.0000 </r>
       <r>   -21.3318     0.0000    14.0000 </r>
       <r>   -21.2335     0.0000    14.0000 </r>
       <r>   -21.1352     0.0000    14.0000 </r>
       <r>   -21.0369     0.0000    14.0000 </r>
       <r>   -20.9386    16.0197    15.5747 </r>
       <r>   -20.8403     0.0000    16.0000 </r>
       <r>   -20.7420     0.0176    16.0017 </r>
       <r>   -20.6437    14.6210    17.4389 </r>
       <r>   -20.5454    24.5839    20.0000 </r>
       <r>   -20.4471     0.0000    20.0000 </r>
       <r>   -20.3488     9.4348    20.9274 </r>
       <r>   -20.2505    18.7637    23.4113 </r>
       <r>   -20.1523    15.5801    25.0652 </r>
       <r>   -20.0540    16.9324    26.8644 </r>
       <r>   -19.9557     5.2554    28.0000 </r>
       <r>   -19.8574     0.0000    28.0000 </r>
       <r>   -19.7591     0.0000    28.0000 </r>
       <r>   -19.6608     0.0000    28.0000 </r>
       <r>   -19.5625     0.0000    28.0000 </r>
       <r>   -19.4642     8.4563    28.8312 </r>
       <r>   -19.3659     7.4289    30.0000 </r>
       <r>   -19.2676     0.0000    30.0000 </r>
       <r>   -19.1693     0.0000    30.0000 </r>
       <r>   -19.0710     8.5710    30.8425 </r>
       <r>   -18.9727    10.6160    32.1103 </r>
       <r>   -18.8744    12.8812    33.9996 </r>
       <r>   -18.7761     0.0000    34.0000 </r>
       <r>   -18.6778     0.0000    34.0000 </r>
       <r>   -18.5795     0.0000    34.0000 </r>
       <r>   -18.4812     0.0000    34.0000 </r>
       <r>   -18.3829     0.0000    34.0000 </r>
       <r>   -18.2846     0.0000    34.0000 </r>
       <r>   -18.1863     5.0222    34.4937 </r>
       <r>   -18.0880    13.9794    36.4908 </r>
       <r>   -17.9897    22.9444    38.8220 </r>
       <r>   -17.8914     3.6652    40.9605 </r>
       <r>   -17.7931     5.9266    41.5993 </r>
       <r>   -17.6948    20.3464    44.0000 </r>
       <r>   -17.5965     4.6097    44.4531 </r>
       <r>   -17.4982     7.5974    45.2635 </r>
       <r>   -17.3999    12.5787    46.6709 </r>
       <r>   -17.3016    11.8277    47.8627 </r>
       <r>   -17.2033     0.0000    48.0000 </r>
       <r>   -17.1050     0.0000    48.0000 </r>
       <r>   -17.0067     6.4829    48.6373 </r>
       <r>   -16.9084    13.2308    50.1840 </r>
       <r>   -16.8101     1.9135    50.4714 </r>
       <r>   -16.7118     5.2347    51.0313 </r>
       <r>   -16.6135     2.3029    51.3097 </r>
       <r>   -16.5152     0.0000    52.0000 </r>
       <r>   -16.4170     7.5021    52.7374 </r>
       <r>   -16.3187    12.5095    54.8297 </r>
       <r>   -16.2204     5.2089    55.3954 </r>
       <r>   -16.1221     0.9027    55.5554 </r>
       <r>   -16.0238     9.7557    56.5256 </r>
       <r>   -15.9255     2.1056    56.7737 </r>
       <r>   -15.8272     2.9529    57.1070 </r>
       <r>   -15.7289     3.2443    57.4689 </r>
       <r>   -15.6306     4.5777    58.0000 </r>
       <r>   -15.5323     5.9347    58.5834 </r>
       <r>   -15.4340    12.0349    59.9997 </r>
       <r>   -15.3357     4.5791    60.5335 </r>
       <r>   -15.2374     1.5667    60.7207 </r>
       <r>   -15.1391    12.5461    62.0000 </r>
       <r>   -15.0408    20.3423    63.9996 </r>
       <r>   -14.9425     3.3655    64.3308 </r>
       <r>   -14.8442     1.5239    64.6331 </r>
       <r>   -14.7459     7.5394    65.4078 </r>
       <r>   -14.6476    11.0848    66.5730 </r>
       <r>   -14.5493    11.1904    68.0000 </r>
       <r>   -14.4510     7.2035    68.7081 </r>
       <r>   -14.3527     8.4071    70.0098 </r>
       <r>   -14.2544    28.4006    73.1627 </r>
       <r>   -14.1561     7.8068    74.0008 </r>
       <r>   -14.0578    24.1824    76.3778 </r>
       <r>   -13.9595     2.5014    76.7126 </r>
       <r>   -13.8612     2.1923    76.9822 </r>
       <r>   -13.7629     6.3356    77.6562 </r>
       <r>   -13.6646     4.5516    78.4474 </r>
       <r>   -13.5663     6.3508    79.1077 </r>
       <r>   -13.4680     3.4200    79.5029 </r>
       <r>   -13.3697    18.5208    81.4711 </r>
       <r>   -13.2714     0.0000    82.0000 </r>
       <r>   -13.1731     0.0000    82.0000 </r>
       <r>   -13.0748     0.3264    82.0321 </r>
       <r>   -12.9765     5.9131    83.4650 </r>
       <r>   -12.8782    12.5577    84.8016 </r>
       <r>   -12.7799    22.2449    87.0700 </r>
       <r>   -12.6816     4.4728    87.6397 </r>
       <r>   -12.5834     2.8823    88.0000 </r>
       <r>   -12.4851     0.0533    88.0052 </r>
       <r>   -12.3868     3.3143    88.4592 </r>
       <r>   -12.2885    17.6662    90.2532 </r>
       <r>   -12.1902    12.8815    91.6164 </r>
       <r>   -12.0919     3.5068    92.0281 </r>
       <r>   -11.9936     3.1470    93.6928 </r>
       <r>   -11.8953    14.6584    95.2076 </r>
       <r>   -11.7970     7.0676    95.9947 </r>
       <r>   -11.6987     0.0784    96.0077 </r>
       <r>   -11.6004    20.4335    98.4441 </r>
       <r>   -11.5021     9.9346    99.6766 </r>
       <r>   -11.4038    23.1348   102.1244 </r>
       <r>   -11.3055    13.8989   103.7162 </r>
       <r>   -11.2072    17.1654   105.4707 </r>
       <r>   -11.1089     6.7611   106.5480 </r>
       <r>   -11.0106    16.8083   108.5526 </r>
       <r>   -10.9123     7.3905   110.1931 </r>
       <r>   -10.8140    18.3887   112.8743 </r>
       <r>   -10.7157     9.6106   114.1115 </r>
       <r>   -10.6174     8.4699   116.0327 </r>
       <r>   -10.5191    41.3368   120.5134 </r>
       <r>   -10.4208    19.6158   123.9282 </r>
       <r>   -10.3225    20.0953   125.9753 </r>
       <r>   -10.2242    13.2101   128.0000 </r>
       <r>   -10.1259     0.0000   128.0000 </r>
       <r>   -10.0276     0.0091   128.0009 </r>
       <r>    -9.9293    20.3373   130.0000 </r>
       <r>    -9.8310    19.8678   131.9529 </r>
       <r>    -9.7327    26.1214   134.5677 </r>
       <r>    -9.6344    21.6025   138.1235 </r>
       <r>    -9.5361     3.3095   140.3253 </r>
       <r>    -9.4378    65.1351   147.6369 </r>
       <r>    -9.3395    31.9147   152.0043 </r>
       <r>    -9.2412    15.8307   154.0235 </r>
       <r>    -9.1429     8.8140   156.0000 </r>
       <r>    -9.0446    12.8368   157.2618 </r>
       <r>    -8.9463    10.8491   160.0000 </r>
       <r>    -8.8480     9.7395   160.9574 </r>
       <r>    -8.7498    30.0369   164.5694 </r>
       <r>    -8.6515    32.0993   167.9232 </r>
       <r>    -8.5532     0.0484   168.0048 </r>
       <r>    -8.4549    23.3941   170.5847 </r>
       <r>    -8.3566    10.3423   172.0000 </r>
       <r>    -8.2583     6.7150   172.6601 </r>
       <r>    -8.1600    11.0604   174.0040 </r>
       <r>    -8.0617    18.6464   175.9997 </r>
       <r>    -7.9634    13.2484   177.3023 </r>
       <r>    -7.8651    15.3955   179.9970 </r>
       <r>    -7.7668    18.9884   182.0000 </r>
       <r>    -7.6685     7.7254   182.7594 </r>
       <r>    -7.5702    26.4605   186.0013 </r>
       <r>    -7.4719    23.5842   188.3196 </r>
       <r>    -7.3736     7.1605   189.3040 </r>
       <r>    -7.2753     4.0674   190.0000 </r>
       <r>    -7.1770     0.0000   190.0000 </r>
       <r>    -7.0787    11.4587   191.1264 </r>
       <r>    -6.9804    22.5919   194.0709 </r>
       <r>    -6.8821    15.7658   196.0000 </r>
       <r>    -6.7838    20.3454   197.9999 </r>
       <r>    -6.6855     7.0686   198.6948 </r>
       <r>    -6.5872    16.4822   200.4710 </r>
       <r>    -6.4889     8.2876   201.3647 </r>
       <r>    -6.3906    11.9303   202.6395 </r>
       <r>    -6.2923    23.4296   205.2371 </r>
       <r>    -6.1940     4.9147   206.0000 </r>
       <r>    -6.0957    25.4411   208.5008 </r>
       <r>    -5.9974    10.4339   209.6924 </r>
       <r>    -5.8991     0.0000   210.0000 </r>
       <r>    -5.8008    15.0370   211.4781 </r>
       <r>    -5.7025     1.7521   212.1722 </r>
       <r>    -5.6042     0.0000   214.0000 </r>
       <r>    -5.5059    40.6877   217.9995 </r>
       <r>    -5.4076     0.0000   218.0000 </r>
       <r>    -5.3093     0.0000   218.0000 </r>
       <r>    -5.2110    20.3463   220.0000 </r>
       <r>    -5.1127     0.0000   220.0000 </r>
       <r>    -5.0144    13.3156   221.3089 </r>
       <r>    -4.9162    21.0781   223.4387 </r>
       <r>    -4.8179    12.8886   225.2669 </r>
       <r>    -4.7196    13.0765   227.8688 </r>
       <r>    -4.6213    14.4058   230.0000 </r>
       <r>    -4.5230     0.1880   230.0185 </r>
       <r>    -4.4247     6.7657   232.0000 </r>
       <r>    -4.3264     0.0000   232.0000 </r>
       <r>    -4.2281     0.0000   232.0000 </r>
       <r>    -4.1298     0.0000   232.0000 </r>
       <r>    -4.0315     0.0000   232.0000 </r>
       <r>    -3.9332     0.0000   232.0000 </r>
       <r>    -3.8349     0.0000   232.0000 </r>
       <r>    -3.7366     0.0000   232.0000 </r>
       <r>    -3.6383     0.0000   232.0000 </r>
       <r>    -3.5400     0.0000   232.0000 </r>
       <r>    -3.4417     0.0000   232.0000 </r>
       <r>    -3.3434     0.0000   232.0000 </r>
       <r>    -3.2451     0.0000   232.0000 </r>
       <r>    -3.1468     0.0000   232.0000 </r>
       <r>    -3.0485     0.0000   232.0000 </r>
       <r>    -2.9502     0.0000   232.0000 </r>
       <r>    -2.8519     0.0000   232.0000 </r>
       <r>    -2.7536     0.0002   232.0000 </r>
       <r>    -2.6553    20.3466   234.0000 </r>
       <r>    -2.5570    20.3460   236.0000 </r>
       <r>    -2.4587     0.0000   236.0000 </r>
       <r>    -2.3604     0.0000   236.0000 </r>
       <r>    -2.2621     0.0000   236.0000 </r>
       <r>    -2.1638     0.0000   236.0000 </r>
       <r>    -2.0655     0.0000   236.0000 </r>
       <r>    -1.9672     0.0000   236.0000 </r>
       <r>    -1.8689     0.0000   236.0000 </r>
       <r>    -1.7706    20.3464   238.0000 </r>
       <r>    -1.6723     0.0408   238.0040 </r>
       <r>    -1.5740    20.3057   240.0000 </r>
       <r>    -1.4757     0.0000   240.0000 </r>
       <r>    -1.3774    30.6033   243.0082 </r>
       <r>    -1.2791     7.1207   244.0000 </r>
       <r>    -1.1808     0.0000   244.0000 </r>
       <r>    -1.0826     0.0000   244.0000 </r>
       <r>    -0.9843    10.8490   245.0664 </r>
       <r>    -0.8860    16.2613   247.8153 </r>
       <r>    -0.7877    18.9874   249.9999 </r>
       <r>    -0.6894     0.0000   250.0000 </r>
       <r>    -0.5911     1.0012   250.0984 </r>
       <r>    -0.4928     6.2663   252.0000 </r>
       <r>    -0.3945     1.7331   252.1704 </r>
       <r>    -0.2962    20.1247   254.6124 </r>
       <r>    -0.1979     4.4840   255.1242 </r>
       <r>    -0.0996     6.8144   256.8033 </r>
       <r>    -0.0013    29.5607   260.0394 </r>
       <r>     0.0970     7.0767   261.4956 </r>
       <r>     0.1953    26.1482   264.6205 </r>
       <r>     0.2936    12.9041   266.9191 </r>
       <r>     0.3919    20.0653   269.0557 </r>
       <r>     0.4902    17.1544   271.2696 </r>
       <r>     0.5885    20.7396   274.0387 </r>
       <r>     0.6868    33.8473   277.8774 </r>
       <r>     0.7851    17.5909   280.6793 </r>
       <r>     0.8834    14.1886   282.6447 </r>
       <r>     0.9817    32.6288   286.7407 </r>
       <r>     1.0800    33.7535   290.4680 </r>
       <r>     1.1783    31.7683   294.0396 </r>
       <r>     1.2766    36.8048   299.0349 </r>
       <r>     1.3749    24.6685   302.0584 </r>
       <r>     1.4732    36.6465   307.1860 </r>
       <r>     1.5715    30.3970   311.3549 </r>
       <r>     1.6698    23.0121   314.8625 </r>
       <r>     1.7681    36.3138   319.0716 </r>
       <r>     1.8664     1.3558   320.0000 </r>
       <r>     1.9647     0.0000   320.0000 </r>
       <r>     2.0630     0.0000   320.0000 </r>
       <r>     2.1613     0.0000   320.0000 </r>
       <r>     2.2596     0.0000   320.0000 </r>
       <r>     2.3579     0.0000   320.0000 </r>
       <r>     2.4562     0.0000   320.0000 </r>
       <r>     2.5545     0.0000   320.0000 </r>
       <r>     2.6527     0.0000   320.0000 </r>
       <r>     2.7510     0.0000   320.0000 </r>
       <r>     2.8493     0.0000   320.0000 </r>
       <r>     2.9476     0.0000   320.0000 </r>
       <r>     3.0459     0.0000   320.0000 </r>
       <r>     3.1442     0.0000   320.0000 </r>
      </set>
     </set>
    </array>
   </total>
  </dos>
 </calculation>
 <structure name="finalpos" >
  <crystal>
   <varray name="basis" >
    <v>      16.72666448       0.25209068       0.00000000 </v>
    <v>       0.25063391      16.44086890       0.00000000 </v>
    <v>       0.00000000       0.00000000      20.00000000 </v>
   </varray>
   <i name="volume">   5498.75430746 </i>
   <varray name="rec_basis" >
    <v>       0.05979852      -0.00091160       0.00000000 </v>
    <v>      -0.00091690       0.06083801       0.00000000 </v>
    <v>       0.00000000       0.00000000       0.05000000 </v>
   </varray>
  </crystal>
  <varray name="positions" >
   <v>       0.95923893       0.87311741       0.43410470 </v>
   <v>       0.96272720       0.18188860       0.43051933 </v>
   <v>       0.03352557       0.72240519       0.41961001 </v>
   <v>       0.64953374       0.92606320       0.42830822 </v>
   <v>       0.24501548       0.99881743       0.30330557 </v>
   <v>       0.10921647       0.03504242       0.25812480 </v>
   <v>       0.81792306       0.04796558       0.28619403 </v>
   <v>       0.69726698       0.03115051       0.35628977 </v>
   <v>       0.96996526       0.11958940       0.30964748 </v>
   <v>       0.96464536       0.02120913       0.27702065 </v>
   <v>       0.84596857       0.01645895       0.53176807 </v>
   <v>       0.14667031       0.99100832       0.50158703 </v>
   <v>       0.98552652       0.75085661       0.62325321 </v>
   <v>       0.02799240       0.88043040       0.67529226 </v>
   <v>       0.03619907       0.17614701       0.67071929 </v>
   <v>       0.99738668       0.30771672       0.61607484 </v>
   <v>       0.02009611       0.02925561       0.66952059 </v>
   <v>       0.10875407       0.02293976       0.62304543 </v>
   <v>       0.85648008       0.44843983       0.47070601 </v>
   <v>       0.77159979       0.57319212       0.47249513 </v>
   <v>       0.81018825       0.66940120       0.44859918 </v>
   <v>       0.82890860       0.63168201       0.52934937 </v>
   <v>       0.04734373       0.33451148       0.41735745 </v>
   <v>       0.40820583       0.07668747       0.57184937 </v>
   <v>       0.53276707       0.11318824       0.62118907 </v>
   <v>       0.60893524       0.11951377       0.55822932 </v>
   <v>       0.61410146       0.04003570       0.61621769 </v>
   <v>       0.27988945       0.04165021       0.51671891 </v>
   <v>       0.69582069       0.01705553       0.48936554 </v>
   <v>       0.95938129       0.32941498       0.49278464 </v>
   <v>       0.28311365       0.97733554       0.42561679 </v>
   <v>       0.02858636       0.57089839       0.39956815 </v>
   <v>       0.03291132       0.49020210       0.39766533 </v>
   <v>       0.51301836       0.91881060       0.45890073 </v>
   <v>       0.43463467       0.92315366       0.46000926 </v>
   <v>       0.95120758       0.72788521       0.49947969 </v>
   <v>       0.97555074       0.87476871       0.48693155 </v>
   <v>       0.98049059       0.18016832       0.48300973 </v>
   <v>       0.06163533       0.02111070       0.42342338 </v>
   <v>       0.05142391       0.03386846       0.35451914 </v>
   <v>       0.90084155       0.03998411       0.36873602 </v>
   <v>       0.90908567       0.02960518       0.43802042 </v>
   <v>       0.75657894       0.02977575       0.37900419 </v>
   <v>       0.76411660       0.02158923       0.44903219 </v>
   <v>       0.84041074       0.02281121       0.47763580 </v>
   <v>       0.13858602       0.00310431       0.44830816 </v>
   <v>       0.20501273       0.99643212       0.40560819 </v>
   <v>       0.19344965       0.00661562       0.33624041 </v>
   <v>       0.99115175       0.02633074       0.47302457 </v>
   <v>       0.96722824       0.61013699       0.43131737 </v>
   <v>       0.98453529       0.69496808       0.44795212 </v>
   <v>       0.39780429       0.98433026       0.49529991 </v>
   <v>       0.55787211       0.97218078       0.49374563 </v>
   <v>       0.64040091       0.96967835       0.46985587 </v>
   <v>       0.97538684       0.44840229       0.42878077 </v>
   <v>       0.82414334       0.03972101       0.34019219 </v>
   <v>       0.11800950       0.02641004       0.31182363 </v>
   <v>       0.97127200       0.05462771       0.32440097 </v>
   <v>       0.31287910       0.00153325       0.48102960 </v>
   <v>       0.99793805       0.10507611       0.51431840 </v>
   <v>       0.01989193       0.10404868       0.58192133 </v>
   <v>       0.01593986       0.95055507       0.58440783 </v>
   <v>       0.99471333       0.94914382       0.51670832 </v>
   <v>       0.97320193       0.80325672       0.52466851 </v>
   <v>       0.98984616       0.80627922       0.59372248 </v>
   <v>       0.01293555       0.87854993       0.62216166 </v>
   <v>       0.02044946       0.17760813       0.61769394 </v>
   <v>       0.99945649       0.25101614       0.58779058 </v>
   <v>       0.98106945       0.25308060       0.51902431 </v>
   <v>       0.04279605       0.02668788       0.61781435 </v>
   <v>       0.90420716       0.48595240       0.45181675 </v>
   <v>       0.89761799       0.57011414       0.45289470 </v>
   <v>       0.82271827       0.61323542       0.47684067 </v>
   <v>       0.99571123       0.36262832       0.44395175 </v>
   <v>       0.44021503       0.03266756       0.53986930 </v>
   <v>       0.52346920       0.02702694       0.54105393 </v>
   <v>       0.57173135       0.07799639       0.58696311 </v>
  </varray>
 </structure>
</modeling>
