<?xml version="1.0" encoding="ISO-8859-1"?>
<modeling>
 <generator>
  <i name="program" type="string">vasp </i>
  <i name="version" type="string">5.4.4.18Apr17-6-g9f103f2a35  </i>
  <i name="subversion" type="string">(build Jun 07 2020 16:50:00) complex            parallel </i>
  <i name="platform" type="string">LinuxIFC </i>
  <i name="date" type="string">2023 03 01 </i>
  <i name="time" type="string">23:50:10 </i>
 </generator>
 <incar>
  <i type="string" name="SYSTEM">Simulation for cell shape cell volume r</i>
  <i type="int" name="ISTART">     1</i>
  <i type="string" name="PREC">high</i>
  <i type="string" name="ALGO">48</i>
  <i type="int" name="ICHARG">    11</i>
  <i type="int" name="NELM">   200</i>
  <i type="int" name="IBRION">    -1</i>
  <i name="EDIFF">      0.00001000</i>
  <i name="EDIFFG">     -0.01000000</i>
  <i type="int" name="NSW">     0</i>
  <i type="int" name="ISIF">     2</i>
  <i name="ENCUT">    500.00000000</i>
  <i name="POTIM">      0.30000000</i>
  <i type="string" name="LREAL">A</i>
  <i type="int" name="ISMEAR">     0</i>
  <i name="SIGMA">      0.01000000</i>
  <i type="int" name="NWRITE">     0</i>
  <i type="logical" name="LWAVE"> F  </i>
  <i type="logical" name="LCHARG"> F  </i>
  <v type="int" name="KPOINT_BSE">    -1     0     0     0</v>
  <i type="int" name="NELM">   200</i>
  <i type="string" name="GGA">PE</i>
 </incar>
 <structure name="primitive_cell" >
  <crystal>
   <varray name="basis" >
    <v>      29.18816276       0.02749874       0.00000000 </v>
    <v>     -14.57038865      25.23503890       0.00000000 </v>
    <v>       0.00000000       0.00000000      20.00000000 </v>
   </varray>
   <i name="volume">  14739.30179988 </i>
   <varray name="rec_basis" >
    <v>       0.03424184       0.01977080       0.00000000 </v>
    <v>      -0.00003731       0.03960590       0.00000000 </v>
    <v>       0.00000000       0.00000000       0.05000000 </v>
   </varray>
  </crystal>
  <varray name="positions" >
   <v>       0.30199042      -0.31084944      -0.47205087 </v>
   <v>       0.28242949      -0.36337019      -0.47167449 </v>
   <v>       0.35539238      -0.28243128      -0.47169963 </v>
   <v>       0.37676494      -0.22857791      -0.46926561 </v>
   <v>       0.22867710      -0.39563658      -0.46933044 </v>
   <v>       0.34901211      -0.21821539      -0.45884601 </v>
   <v>       0.38828035      -0.30205206      -0.47205929 </v>
   <v>       0.31081025      -0.38848705      -0.47193724 </v>
   <v>       0.21008109      -0.33574609      -0.46040205 </v>
   <v>       0.36324475      -0.35556989      -0.47170979 </v>
   <v>       0.19512202      -0.37633859      -0.44218832 </v>
   <v>       0.19894647      -0.37261310      -0.38738772 </v>
   <v>       0.21819116      -0.43376363      -0.45855120 </v>
   <v>       0.42926176      -0.19492578      -0.44145041 </v>
   <v>       0.42860975      -0.19874297      -0.38660705 </v>
   <v>       0.45503980      -0.20989394      -0.45897626 </v>
   <v>       0.39556485      -0.37710042      -0.46945704 </v>
   <v>       0.13775276      -0.41106057      -0.46113231 </v>
   <v>       0.40219231      -0.15605073       0.45376079 </v>
   <v>       0.15648976      -0.44377730       0.45475250 </v>
   <v>       0.43362979      -0.34941031      -0.45890195 </v>
   <v>       0.14719094      -0.33716071      -0.36207992 </v>
   <v>       0.12444887      -0.44463589       0.48392028 </v>
   <v>       0.45203701      -0.13746042      -0.46055680 </v>
   <v>       0.33592602      -0.45551401      -0.45965172 </v>
   <v>       0.43283232      -0.12401558       0.48353977 </v>
   <v>       0.37654915      -0.42979746      -0.44186949 </v>
   <v>       0.37315813      -0.42935062      -0.38704395 </v>
   <v>       0.09541013      -0.41333665      -0.42386444 </v>
   <v>       0.10364377      -0.37886301      -0.36697160 </v>
   <v>       0.49121359      -0.09513367      -0.42237168 </v>
   <v>      -0.48460583      -0.14670855      -0.35976533 </v>
   <v>       0.44310683      -0.40186395       0.45424980 </v>
   <v>       0.07178914      -0.47961300       0.46430274 </v>
   <v>       0.45092372      -0.07120418       0.46378146 </v>
   <v>       0.39964768      -0.09131716       0.38402544 </v>
   <v>       0.41120436      -0.45258959      -0.46088378 </v>
   <v>      -0.48382258      -0.10358821      -0.36430509 </v>
   <v>       0.04300015      -0.44907391      -0.44099723 </v>
   <v>       0.09218967       0.48825781       0.38566278 </v>
   <v>       0.06669613      -0.39229934      -0.32636149 </v>
   <v>       0.44430970      -0.43278579       0.48372522 </v>
   <v>       0.43120237      -0.06124410       0.40703193 </v>
   <v>       0.06205699       0.48958054       0.40873025 </v>
   <v>       0.33802601       0.48348901      -0.36102927 </v>
   <v>       0.02986508      -0.48216706      -0.49630626 </v>
   <v>      -0.49183022      -0.04260363      -0.43957462 </v>
   <v>       0.48941032      -0.02930781      -0.49593231 </v>
   <v>       0.01192379      -0.44953494      -0.41037825 </v>
   <v>       0.41387560      -0.49234163      -0.42322886 </v>
   <v>      -0.46233697      -0.06718448      -0.32247636 </v>
   <v>       0.43889514      -0.02402254       0.39683412 </v>
   <v>       0.37972418       0.48166156      -0.36608250 </v>
   <v>       0.02487343       0.46047589       0.39798455 </v>
   <v>      -0.46194788      -0.01155007      -0.40816817 </v>
   <v>       0.47919418      -0.45064388       0.46405916 </v>
   <v>      -0.48927556      -0.39874811       0.38485562 </v>
   <v>      -0.02650173       0.48119396       0.48780505 </v>
   <v>      -0.49060994       0.02725247       0.48841209 </v>
   <v>      -0.49076598      -0.43041059       0.40770924 </v>
   <v>      -0.02190268      -0.49422927       0.38377277 </v>
   <v>       0.44969280       0.49101459      -0.44024848 </v>
   <v>       0.39339212       0.45829670      -0.32543857 </v>
   <v>      -0.04552712       0.45018934      -0.41206900 </v>
   <v>       0.48236260      -0.48944404      -0.49592123 </v>
   <v>       0.49553808       0.04542431      -0.41189587 </v>
   <v>      -0.46885193       0.02352076       0.38494608 </v>
   <v>      -0.04661979       0.47975715       0.42364049 </v>
   <v>      -0.06114755       0.44911515      -0.46204049 </v>
   <v>      -0.47076323       0.04795602       0.42479132 </v>
   <v>      -0.48895487       0.06153148      -0.46139995 </v>
   <v>       0.45055779       0.46073407      -0.40924115 </v>
   <v>      -0.46124101      -0.43804923       0.39756779 </v>
   <v>      -0.10050064       0.44664926       0.41250101 </v>
   <v>      -0.48088544       0.49079506       0.48865905 </v>
   <v>      -0.11542943       0.41535141      -0.47419176 </v>
   <v>      -0.44968228       0.10206641       0.41430792 </v>
   <v>      -0.46812438       0.11602196      -0.47289918 </v>
   <v>       0.49370817       0.46892284       0.38524386 </v>
   <v>      -0.44932298      -0.49559416      -0.41144560 </v>
   <v>      -0.09265968       0.45362476       0.29666290 </v>
   <v>      -0.47992011       0.47095893       0.42506809 </v>
   <v>      -0.13605817       0.41298745       0.46081587 </v>
   <v>      -0.11991400       0.45061895       0.34577163 </v>
   <v>      -0.44843766       0.09536063       0.29846922 </v>
   <v>      -0.47678244       0.13314609      -0.37610897 </v>
   <v>      -0.44846600       0.48907882      -0.46099367 </v>
   <v>      -0.44860219       0.13725527       0.46269641 </v>
   <v>      -0.13342440       0.39047068      -0.37714490 </v>
   <v>      -0.42513302       0.12220584       0.34826129 </v>
   <v>      -0.46880961       0.14842025      -0.42295223 </v>
   <v>      -0.14820662       0.38278510      -0.42423016 </v>
   <v>      -0.16168293       0.45220520       0.34334949 </v>
   <v>      -0.18696847       0.37226048      -0.42697014 </v>
   <v>      -0.44684287       0.44996611       0.41465178 </v>
   <v>      -0.44045392       0.18722135      -0.42477639 </v>
   <v>      -0.38191665       0.16417118       0.34707806 </v>
   <v>      -0.41475789       0.46831765      -0.47240801 </v>
   <v>      -0.19322985       0.37402784       0.44651963 </v>
   <v>      -0.43002304       0.19466823       0.44899150 </v>
   <v>      -0.45586815       0.44769833       0.29888232 </v>
   <v>      -0.45597049       0.20632342       0.47459409 </v>
   <v>      -0.19987846       0.36474653       0.39282688 </v>
   <v>      -0.21540489       0.43218961       0.45742762 </v>
   <v>      -0.20485098       0.33644980       0.47226187 </v>
   <v>      -0.43224765       0.20172545       0.39532454 </v>
   <v>      -0.41269335       0.44911044       0.46308740 </v>
   <v>      -0.38944481       0.47652784      -0.37545539 </v>
   <v>      -0.45149048       0.42500664       0.34881008 </v>
   <v>      -0.22685345       0.39437467       0.47131772 </v>
   <v>      -0.35008526       0.21633760       0.46011815 </v>
   <v>      -0.38201020       0.46866569      -0.42229002 </v>
   <v>      -0.37618344       0.22802603       0.47430478 </v>
   <v>      -0.45220352       0.38197178       0.34797620 </v>
   <v>      -0.37182269       0.44008698      -0.42422345 </v>
   <v>      -0.28066217       0.36260228       0.47407017 </v>
   <v>      -0.37340287       0.43116753       0.44933429 </v>
   <v>      -0.35395742       0.28200689       0.47578932 </v>
   <v>      -0.33587437       0.45777248       0.47459542 </v>
   <v>      -0.36440587       0.43315307       0.39561433 </v>
   <v>      -0.43100566       0.35111005       0.46260478 </v>
   <v>      -0.30054268       0.31001721       0.47497500 </v>
   <v>      -0.30867098       0.38810278       0.47487203 </v>
   <v>      -0.38651922       0.30200042       0.47704144 </v>
   <v>      -0.39300425       0.37757952       0.47529753 </v>
   <v>      -0.36114543       0.35548690       0.47601409 </v>
  </varray>
 </structure>
 <varray name="primitive_index" >
  <v type="int" >        1 </v>
  <v type="int" >       80 </v>
  <v type="int" >       79 </v>
  <v type="int" >        6 </v>
  <v type="int" >        4 </v>
  <v type="int" >       27 </v>
  <v type="int" >        3 </v>
  <v type="int" >        2 </v>
  <v type="int" >       59 </v>
  <v type="int" >       81 </v>
  <v type="int" >      120 </v>
  <v type="int" >       60 </v>
  <v type="int" >       25 </v>
  <v type="int" >      114 </v>
  <v type="int" >       54 </v>
  <v type="int" >       53 </v>
  <v type="int" >        5 </v>
  <v type="int" >      115 </v>
  <v type="int" >       31 </v>
  <v type="int" >       37 </v>
  <v type="int" >       26 </v>
  <v type="int" >       76 </v>
  <v type="int" >       95 </v>
  <v type="int" >      109 </v>
  <v type="int" >       65 </v>
  <v type="int" >       87 </v>
  <v type="int" >      126 </v>
  <v type="int" >       66 </v>
  <v type="int" >      116 </v>
  <v type="int" >       22 </v>
  <v type="int" >      110 </v>
  <v type="int" >       74 </v>
  <v type="int" >       43 </v>
  <v type="int" >       94 </v>
  <v type="int" >       86 </v>
  <v type="int" >       33 </v>
  <v type="int" >      121 </v>
  <v type="int" >       20 </v>
  <v type="int" >      117 </v>
  <v type="int" >       39 </v>
  <v type="int" >       75 </v>
  <v type="int" >      103 </v>
  <v type="int" >       14 </v>
  <v type="int" >       16 </v>
  <v type="int" >       78 </v>
  <v type="int" >       93 </v>
  <v type="int" >      111 </v>
  <v type="int" >       85 </v>
  <v type="int" >       56 </v>
  <v type="int" >      122 </v>
  <v type="int" >       73 </v>
  <v type="int" >       34 </v>
  <v type="int" >       24 </v>
  <v type="int" >       40 </v>
  <v type="int" >       50 </v>
  <v type="int" >      102 </v>
  <v type="int" >       45 </v>
  <v type="int" >       96 </v>
  <v type="int" >       88 </v>
  <v type="int" >       18 </v>
  <v type="int" >       38 </v>
  <v type="int" >      123 </v>
  <v type="int" >       77 </v>
  <v type="int" >       55 </v>
  <v type="int" >      101 </v>
  <v type="int" >       49 </v>
  <v type="int" >       32 </v>
  <v type="int" >       99 </v>
  <v type="int" >      118 </v>
  <v type="int" >       91 </v>
  <v type="int" >      112 </v>
  <v type="int" >       62 </v>
  <v type="int" >       46 </v>
  <v type="int" >       98 </v>
  <v type="int" >      104 </v>
  <v type="int" >      119 </v>
  <v type="int" >       90 </v>
  <v type="int" >      113 </v>
  <v type="int" >       44 </v>
  <v type="int" >       61 </v>
  <v type="int" >       70 </v>
  <v type="int" >      107 </v>
  <v type="int" >       97 </v>
  <v type="int" >       15 </v>
  <v type="int" >       68 </v>
  <v type="int" >       51 </v>
  <v type="int" >      124 </v>
  <v type="int" >       89 </v>
  <v type="int" >       57 </v>
  <v type="int" >       13 </v>
  <v type="int" >       19 </v>
  <v type="int" >       21 </v>
  <v type="int" >       69 </v>
  <v type="int" >       58 </v>
  <v type="int" >      106 </v>
  <v type="int" >       52 </v>
  <v type="int" >       67 </v>
  <v type="int" >      125 </v>
  <v type="int" >      100 </v>
  <v type="int" >       92 </v>
  <v type="int" >       72 </v>
  <v type="int" >       36 </v>
  <v type="int" >       41 </v>
  <v type="int" >       28 </v>
  <v type="int" >       42 </v>
  <v type="int" >       35 </v>
  <v type="int" >      105 </v>
  <v type="int" >       63 </v>
  <v type="int" >       17 </v>
  <v type="int" >       10 </v>
  <v type="int" >       30 </v>
  <v type="int" >       23 </v>
  <v type="int" >       12 </v>
  <v type="int" >       71 </v>
  <v type="int" >       64 </v>
  <v type="int" >       83 </v>
  <v type="int" >      108 </v>
  <v type="int" >       82 </v>
  <v type="int" >       48 </v>
  <v type="int" >       47 </v>
  <v type="int" >       29 </v>
  <v type="int" >        7 </v>
  <v type="int" >        8 </v>
  <v type="int" >        9 </v>
  <v type="int" >       11 </v>
  <v type="int" >       84 </v>
 </varray>
 <kpoints>
  <generation param="listgenerated">
   <i name="divisions" type="int">      20 </i>
   <v>       0.00000000       0.00000000       0.00000000 </v>
   <v>       0.50000000       0.00000000       0.00000000 </v>
   <v>       0.33333333       0.33333333       0.00000000 </v>
   <v>       0.00000000       0.00000000       0.00000000 </v>
  </generation>
  <varray name="kpointlist" >
   <v>       0.00000000       0.00000000       0.00000000 </v>
   <v>       0.02631579       0.00000000       0.00000000 </v>
   <v>       0.05263158       0.00000000       0.00000000 </v>
   <v>       0.07894737       0.00000000       0.00000000 </v>
   <v>       0.10526316       0.00000000       0.00000000 </v>
   <v>       0.13157895       0.00000000       0.00000000 </v>
   <v>       0.15789474       0.00000000       0.00000000 </v>
   <v>       0.18421053       0.00000000       0.00000000 </v>
   <v>       0.21052632       0.00000000       0.00000000 </v>
   <v>       0.23684211       0.00000000       0.00000000 </v>
   <v>       0.26315789       0.00000000       0.00000000 </v>
   <v>       0.28947368       0.00000000       0.00000000 </v>
   <v>       0.31578947       0.00000000       0.00000000 </v>
   <v>       0.34210526       0.00000000       0.00000000 </v>
   <v>       0.36842105       0.00000000       0.00000000 </v>
   <v>       0.39473684       0.00000000       0.00000000 </v>
   <v>       0.42105263       0.00000000       0.00000000 </v>
   <v>       0.44736842       0.00000000       0.00000000 </v>
   <v>       0.47368421       0.00000000       0.00000000 </v>
   <v>       0.50000000       0.00000000       0.00000000 </v>
   <v>       0.50000000       0.00000000       0.00000000 </v>
   <v>       0.49122807       0.01754386       0.00000000 </v>
   <v>       0.48245614       0.03508772       0.00000000 </v>
   <v>       0.47368421       0.05263158       0.00000000 </v>
   <v>       0.46491228       0.07017544       0.00000000 </v>
   <v>       0.45614035       0.08771930       0.00000000 </v>
   <v>       0.44736842       0.10526316       0.00000000 </v>
   <v>       0.43859649       0.12280702       0.00000000 </v>
   <v>       0.42982456       0.14035088       0.00000000 </v>
   <v>       0.42105263       0.15789474       0.00000000 </v>
   <v>       0.41228070       0.17543860       0.00000000 </v>
   <v>       0.40350877       0.19298246       0.00000000 </v>
   <v>       0.39473684       0.21052632       0.00000000 </v>
   <v>       0.38596491       0.22807018       0.00000000 </v>
   <v>       0.37719298       0.24561404       0.00000000 </v>
   <v>       0.36842105       0.26315789       0.00000000 </v>
   <v>       0.35964912       0.28070175       0.00000000 </v>
   <v>       0.35087719       0.29824561       0.00000000 </v>
   <v>       0.34210526       0.31578947       0.00000000 </v>
   <v>       0.33333333       0.33333333       0.00000000 </v>
   <v>       0.33333333       0.33333333       0.00000000 </v>
   <v>       0.31578947       0.31578947       0.00000000 </v>
   <v>       0.29824561       0.29824561       0.00000000 </v>
   <v>       0.28070175       0.28070175       0.00000000 </v>
   <v>       0.26315789       0.26315789       0.00000000 </v>
   <v>       0.24561404       0.24561404       0.00000000 </v>
   <v>       0.22807018       0.22807018       0.00000000 </v>
   <v>       0.21052632       0.21052632       0.00000000 </v>
   <v>       0.19298246       0.19298246       0.00000000 </v>
   <v>       0.17543860       0.17543860       0.00000000 </v>
   <v>       0.15789474       0.15789474       0.00000000 </v>
   <v>       0.14035088       0.14035088       0.00000000 </v>
   <v>       0.12280702       0.12280702       0.00000000 </v>
   <v>       0.10526316       0.10526316       0.00000000 </v>
   <v>       0.08771930       0.08771930       0.00000000 </v>
   <v>       0.07017544       0.07017544       0.00000000 </v>
   <v>       0.05263158       0.05263158       0.00000000 </v>
   <v>       0.03508772       0.03508772       0.00000000 </v>
   <v>       0.01754386       0.01754386       0.00000000 </v>
   <v>       0.00000000       0.00000000       0.00000000 </v>
  </varray>
  <varray name="weights" >
   <v>       0.01666667 </v>
   <v>       0.01666667 </v>
   <v>       0.01666667 </v>
   <v>       0.01666667 </v>
   <v>       0.01666667 </v>
   <v>       0.01666667 </v>
   <v>       0.01666667 </v>
   <v>       0.01666667 </v>
   <v>       0.01666667 </v>
   <v>       0.01666667 </v>
   <v>       0.01666667 </v>
   <v>       0.01666667 </v>
   <v>       0.01666667 </v>
   <v>       0.01666667 </v>
   <v>       0.01666667 </v>
   <v>       0.01666667 </v>
   <v>       0.01666667 </v>
   <v>       0.01666667 </v>
   <v>       0.01666667 </v>
   <v>       0.01666667 </v>
   <v>       0.01666667 </v>
   <v>       0.01666667 </v>
   <v>       0.01666667 </v>
   <v>       0.01666667 </v>
   <v>       0.01666667 </v>
   <v>       0.01666667 </v>
   <v>       0.01666667 </v>
   <v>       0.01666667 </v>
   <v>       0.01666667 </v>
   <v>       0.01666667 </v>
   <v>       0.01666667 </v>
   <v>       0.01666667 </v>
   <v>       0.01666667 </v>
   <v>       0.01666667 </v>
   <v>       0.01666667 </v>
   <v>       0.01666667 </v>
   <v>       0.01666667 </v>
   <v>       0.01666667 </v>
   <v>       0.01666667 </v>
   <v>       0.01666667 </v>
   <v>       0.01666667 </v>
   <v>       0.01666667 </v>
   <v>       0.01666667 </v>
   <v>       0.01666667 </v>
   <v>       0.01666667 </v>
   <v>       0.01666667 </v>
   <v>       0.01666667 </v>
   <v>       0.01666667 </v>
   <v>       0.01666667 </v>
   <v>       0.01666667 </v>
   <v>       0.01666667 </v>
   <v>       0.01666667 </v>
   <v>       0.01666667 </v>
   <v>       0.01666667 </v>
   <v>       0.01666667 </v>
   <v>       0.01666667 </v>
   <v>       0.01666667 </v>
   <v>       0.01666667 </v>
   <v>       0.01666667 </v>
   <v>       0.01666667 </v>
  </varray>
 </kpoints>
 <parameters>
  <separator name="general" >
   <i type="string" name="SYSTEM">Simulation for cell shape cell volume r</i>
   <i type="logical" name="LCOMPAT"> F  </i>
  </separator>
  <separator name="electronic" >
   <i type="string" name="PREC">high</i>
   <i name="ENMAX">    500.00000000</i>
   <i name="ENAUG">    644.87300000</i>
   <i name="EDIFF">      0.00001000</i>
   <i type="int" name="IALGO">    38</i>
   <i type="int" name="IWAVPR">    10</i>
   <i type="int" name="NBANDS">   288</i>
   <i name="NELECT">    426.00000000</i>
   <i type="int" name="TURBO">     0</i>
   <i type="int" name="IRESTART">     0</i>
   <i type="int" name="NREBOOT">     0</i>
   <i type="int" name="NMIN">     0</i>
   <i name="EREF">      0.00000000</i>
   <separator name="electronic smearing" >
    <i type="int" name="ISMEAR">     0</i>
    <i name="SIGMA">      0.01000000</i>
    <i name="KSPACING">      0.50000000</i>
    <i type="logical" name="KGAMMA"> T  </i>
   </separator>
   <separator name="electronic projectors" >
    <i type="logical" name="LREAL"> T  </i>
    <v name="ROPT">     -0.00040000     -0.00040000     -0.00040000     -0.00040000</v>
    <i type="int" name="LMAXPAW">  -100</i>
    <i type="int" name="LMAXMIX">     2</i>
    <i type="logical" name="NLSPLINE"> F  </i>
   </separator>
   <separator name="electronic startup" >
    <i type="int" name="ISTART">     1</i>
    <i type="int" name="ICHARG">    11</i>
    <i type="int" name="INIWAV">     1</i>
   </separator>
   <separator name="electronic spin" >
    <i type="int" name="ISPIN">     1</i>
    <i type="logical" name="LNONCOLLINEAR"> F  </i>
    <v name="MAGMOM">      1.00000000      1.00000000      1.00000000      1.00000000      1.00000000      1.00000000      1.00000000      1.00000000      1.00000000      1.00000000      1.00000000      1.00000000      1.00000000      1.00000000      1.00000000      1.00000000      1.00000000      1.00000000      1.00000000      1.00000000
      1.00000000      1.00000000      1.00000000      1.00000000      1.00000000      1.00000000      1.00000000      1.00000000      1.00000000      1.00000000      1.00000000      1.00000000      1.00000000      1.00000000      1.00000000      1.00000000      1.00000000      1.00000000      1.00000000      1.00000000
      1.00000000      1.00000000      1.00000000      1.00000000      1.00000000      1.00000000      1.00000000      1.00000000      1.00000000      1.00000000      1.00000000      1.00000000      1.00000000      1.00000000      1.00000000      1.00000000      1.00000000      1.00000000      1.00000000      1.00000000
      1.00000000      1.00000000      1.00000000      1.00000000      1.00000000      1.00000000      1.00000000      1.00000000      1.00000000      1.00000000      1.00000000      1.00000000      1.00000000      1.00000000      1.00000000      1.00000000      1.00000000      1.00000000      1.00000000      1.00000000
      1.00000000      1.00000000      1.00000000      1.00000000      1.00000000      1.00000000      1.00000000      1.00000000      1.00000000      1.00000000      1.00000000      1.00000000      1.00000000      1.00000000      1.00000000      1.00000000      1.00000000      1.00000000      1.00000000      1.00000000
      1.00000000      1.00000000      1.00000000      1.00000000      1.00000000      1.00000000      1.00000000      1.00000000      1.00000000      1.00000000      1.00000000      1.00000000      1.00000000      1.00000000      1.00000000      1.00000000      1.00000000      1.00000000      1.00000000      1.00000000
      1.00000000      1.00000000      1.00000000      1.00000000      1.00000000      1.00000000</v>
    <i name="NUPDOWN">     -1.00000000</i>
    <i type="logical" name="LSORBIT"> F  </i>
    <v name="SAXIS">      0.00000000      0.00000000      1.00000000</v>
    <i type="logical" name="LSPIRAL"> F  </i>
    <v name="QSPIRAL">      0.00000000      0.00000000      0.00000000</v>
    <i type="logical" name="LZEROZ"> F  </i>
   </separator>
   <separator name="electronic exchange-correlation" >
    <i type="logical" name="LASPH"> F  </i>
    <i type="logical" name="LMETAGGA"> F  </i>
   </separator>
   <separator name="electronic convergence" >
    <i type="int" name="NELM">   200</i>
    <i type="int" name="NELMDL">     0</i>
    <i type="int" name="NELMIN">     2</i>
    <i name="ENINI">    500.00000000</i>
    <separator name="electronic convergence detail" >
     <i type="logical" name="LDIAG"> T  </i>
     <i type="logical" name="LSUBROT"> F  </i>
     <i name="WEIMIN">      0.00000000</i>
     <i name="EBREAK">      0.00000001</i>
     <i name="DEPER">      0.30000000</i>
     <i type="int" name="NRMM">     4</i>
     <i name="TIME">      0.40000000</i>
    </separator>
   </separator>
   <separator name="electronic mixer" >
    <i name="AMIX">      0.40000000</i>
    <i name="BMIX">      1.00000000</i>
    <i name="AMIN">      0.10000000</i>
    <i name="AMIX_MAG">      1.60000000</i>
    <i name="BMIX_MAG">      1.00000000</i>
    <separator name="electronic mixer details" >
     <i type="int" name="IMIX">     4</i>
     <i type="logical" name="MIXFIRST"> F  </i>
     <i type="int" name="MAXMIX">   -45</i>
     <i name="WC">    100.00000000</i>
     <i type="int" name="INIMIX">     1</i>
     <i type="int" name="MIXPRE">     1</i>
     <i type="int" name="MREMOVE">     5</i>
    </separator>
   </separator>
   <separator name="electronic dipolcorrection" >
    <i type="logical" name="LDIPOL"> F  </i>
    <i type="logical" name="LMONO"> F  </i>
    <i type="int" name="IDIPOL">     0</i>
    <i name="EPSILON">      1.00000000</i>
    <v name="DIPOL">   -100.00000000   -100.00000000   -100.00000000</v>
    <i name="EFIELD">      0.00000000</i>
   </separator>
  </separator>
  <separator name="grids" >
   <i type="int" name="NGX">   216</i>
   <i type="int" name="NGY">   216</i>
   <i type="int" name="NGZ">   150</i>
   <i type="int" name="NGXF">   324</i>
   <i type="int" name="NGYF">   324</i>
   <i type="int" name="NGZF">   224</i>
   <i type="logical" name="ADDGRID"> F  </i>
  </separator>
  <separator name="ionic" >
   <i type="int" name="NSW">     0</i>
   <i type="int" name="IBRION">    -1</i>
   <i type="int" name="MDALGO">     0</i>
   <i type="int" name="ISIF">     2</i>
   <i name="PSTRESS">      0.00000000</i>
   <i name="EDIFFG">     -0.01000000</i>
   <i type="int" name="NFREE">     0</i>
   <i name="POTIM">      0.30000000</i>
   <i name="SMASS">     -3.00000000</i>
   <i name="SCALEE">      1.00000000</i>
  </separator>
  <separator name="ionic md" >
   <i name="TEBEG">      0.00010000</i>
   <i name="TEEND">      0.00010000</i>
   <i type="int" name="NBLOCK">     1</i>
   <i type="int" name="KBLOCK">     1</i>
   <i type="int" name="NPACO">   256</i>
   <i name="APACO">     16.00000000</i>
  </separator>
  <separator name="symmetry" >
   <i type="int" name="ISYM">     2</i>
   <i name="SYMPREC">      0.00001000</i>
  </separator>
  <separator name="dos" >
   <i type="int" name="LORBIT">     0</i>
   <v name="RWIGS">     -1.00000000     -1.00000000     -1.00000000     -1.00000000</v>
   <i type="int" name="NEDOS">   301</i>
   <i name="EMIN">     10.00000000</i>
   <i name="EMAX">    -10.00000000</i>
   <i name="EFERMI">      0.00000000</i>
  </separator>
  <separator name="writing" >
   <i type="int" name="NWRITE">     0</i>
   <i type="logical" name="LWAVE"> F  </i>
   <i type="logical" name="LDOWNSAMPLE"> F  </i>
   <i type="logical" name="LCHARG"> F  </i>
   <i type="logical" name="LPARD"> F  </i>
   <i type="logical" name="LVTOT"> F  </i>
   <i type="logical" name="LVHAR"> F  </i>
   <i type="logical" name="LELF"> F  </i>
   <i type="logical" name="LOPTICS"> F  </i>
   <v name="STM">      0.00000000      0.00000000      0.00000000      0.00000000      0.00000000      0.00000000      0.00000000</v>
  </separator>
  <separator name="performance" >
   <i type="int" name="NPAR">    16</i>
   <i type="int" name="NSIM">     4</i>
   <i type="int" name="NBLK">    -1</i>
   <i type="logical" name="LPLANE"> T  </i>
   <i type="logical" name="LSCALAPACK"> T  </i>
   <i type="logical" name="LSCAAWARE"> F  </i>
   <i type="logical" name="LSCALU"> F  </i>
   <i type="logical" name="LASYNC"> F  </i>
   <i type="logical" name="LORBITALREAL"> F  </i>
  </separator>
  <separator name="miscellaneous" >
   <i type="int" name="IDIOT">     3</i>
   <i type="int" name="ISPECIAL">     0</i>
   <i type="logical" name="LMUSIC"> F  </i>
   <v name="POMASS">     14.00100000      1.00000000     16.00000000     12.01100000</v>
   <v name="DARWINR">      0.00000000      0.00000000      0.00000000      0.00000000</v>
   <v name="DARWINV">      1.00000000      1.00000000      1.00000000      1.00000000</v>
   <i type="logical" name="LCORR"> T  </i>
  </separator>
  <i type="logical" name="GGA_COMPAT"> T  </i>
  <i type="logical" name="LBERRY"> F  </i>
  <i type="int" name="ICORELEVEL">     0</i>
  <i type="logical" name="LDAU"> F  </i>
  <i type="int" name="I_CONSTRAINED_M">     0</i>
  <separator name="electronic exchange-correlation" >
   <i type="string" name="GGA">PE</i>
   <i type="int" name="VOSKOWN">     0</i>
   <i type="logical" name="LHFCALC"> F  </i>
   <i type="string" name="PRECFOCK"></i>
   <i type="logical" name="LSYMGRAD"> F  </i>
   <i type="logical" name="LHFONE"> F  </i>
   <i type="logical" name="LRHFCALC"> F  </i>
   <i type="logical" name="LTHOMAS"> F  </i>
   <i type="logical" name="LMODELHF"> F  </i>
   <i name="ENCUT4O">     -1.00000000</i>
   <i type="int" name="EXXOEP">     0</i>
   <i type="int" name="FOURORBIT">     0</i>
   <i name="AEXX">      0.00000000</i>
   <i name="HFALPHA">      0.00000000</i>
   <i name="MCALPHA">      0.00000000</i>
   <i name="ALDAX">      1.00000000</i>
   <i name="AGGAX">      1.00000000</i>
   <i name="ALDAC">      1.00000000</i>
   <i name="AGGAC">      1.00000000</i>
   <i type="int" name="NKREDX">     1</i>
   <i type="int" name="NKREDY">     1</i>
   <i type="int" name="NKREDZ">     1</i>
   <i type="logical" name="SHIFTRED"> F  </i>
   <i type="logical" name="ODDONLY"> F  </i>
   <i type="logical" name="EVENONLY"> F  </i>
   <i type="int" name="LMAXFOCK">     0</i>
   <i type="int" name="NMAXFOCKAE">     0</i>
   <i type="logical" name="LFOCKAEDFT"> F  </i>
   <i name="HFSCREEN">      0.00000000</i>
   <i name="HFSCREENC">      0.00000000</i>
   <i type="int" name="NBANDSGWLOW">     0</i>
  </separator>
  <separator name="vdW DFT" >
   <i type="logical" name="LUSE_VDW"> F  </i>
   <i name="Zab_VDW">     -0.84910000</i>
   <i name="PARAM1">      0.12340000</i>
   <i name="PARAM2">      1.00000000</i>
   <i name="PARAM3">      0.00000000</i>
  </separator>
  <separator name="model GW" >
   <i type="int" name="MODEL_GW">     0</i>
   <i name="MODEL_EPS0">     70.18715143</i>
   <i name="MODEL_ALPHA">      1.00000000</i>
  </separator>
  <separator name="linear response parameters" >
   <i type="logical" name="LEPSILON"> F  </i>
   <i type="logical" name="LRPA"> F  </i>
   <i type="logical" name="LNABLA"> F  </i>
   <i type="logical" name="LVEL"> F  </i>
   <i type="int" name="KINTER">     0</i>
   <i name="CSHIFT">      0.10000000</i>
   <i name="OMEGAMAX">     -1.00000000</i>
   <i name="DEG_THRESHOLD">      0.00200000</i>
   <i name="RTIME">     -0.10000000</i>
   <i name="WPLASMAI">      0.00000000</i>
   <v name="DFIELD">      0.00000000      0.00000000      0.00000000</v>
   <v name="WPLASMA">      0.00000000      0.00000000      0.00000000      0.00000000      0.00000000      0.00000000      0.00000000      0.00000000      0.00000000</v>
  </separator>
  <separator name="orbital magnetization" >
   <i type="logical" name="NUCIND"> F  </i>
   <v name="MAGPOS">      0.00000000      0.00000000      0.00000000</v>
   <i type="logical" name="LNICSALL"> T  </i>
   <i type="logical" name="ORBITALMAG"> F  </i>
   <i type="logical" name="LMAGBLOCH"> F  </i>
   <i type="logical" name="LCHIMAG"> F  </i>
   <i type="logical" name="LGAUGE"> T  </i>
   <i type="int" name="MAGATOM">     0</i>
   <v name="MAGDIPOL">      0.00000000      0.00000000      0.00000000</v>
   <v name="AVECCONST">      0.00000000      0.00000000      0.00000000</v>
  </separator>
  <separator name="response functions" >
   <i type="logical" name="LADDER"> F  </i>
   <i type="logical" name="LRPAFORCE"> F  </i>
   <i type="logical" name="LFXC"> F  </i>
   <i type="logical" name="LHARTREE"> T  </i>
   <i type="int" name="IBSE">     0</i>
   <v type="int" name="KPOINT">    -1     0     0     0</v>
   <i type="logical" name="LTCTE"> F  </i>
   <i type="logical" name="LTETE"> F  </i>
   <i type="logical" name="LTRIPLET"> F  </i>
   <i type="logical" name="LFXCEPS"> F  </i>
   <i type="logical" name="LFXHEG"> F  </i>
   <i type="int" name="NATURALO">     2</i>
   <i type="logical" name="L2ORDER"> F  </i>
   <i type="logical" name="LMP2LT"> F  </i>
   <i type="logical" name="LUSEW"> F  </i>
   <i name="ENCUTGW">     -2.00000000</i>
   <i name="ENCUTGWSOFT">     -2.00000000</i>
   <i name="ENCUTLF">     -1.00000000</i>
   <i type="int" name="LMAXMP2">    -1</i>
   <i name="SCISSOR">      0.00000000</i>
   <i type="int" name="NOMEGA">     0</i>
   <i type="int" name="NOMEGAR">     0</i>
   <i type="int" name="NBANDSGW">    -1</i>
   <i type="int" name="NBANDSO">    -1</i>
   <i type="int" name="NBANDSV">    -1</i>
   <i type="int" name="NELM">   200</i>
   <i type="int" name="NELMHF">     1</i>
   <i type="int" name="DIM">     3</i>
   <i type="int" name="ANTIRES">     0</i>
   <i name="OMEGAMAX">    -30.00000000</i>
   <i name="OMEGAMIN">    -30.00000000</i>
   <i name="OMEGATL">   -200.00000000</i>
   <i type="int" name="OMEGAGRID">   140</i>
   <i name="CSHIFT">     -0.10000000</i>
   <i type="logical" name="SELFENERGY"> F  </i>
   <i type="logical" name="LSPECTRAL"> F  </i>
   <i type="logical" name="LSPECTRALGW"> F  </i>
   <i type="logical" name="LSINGLES"> F  </i>
   <i type="logical" name="LFERMIGW"> F  </i>
   <i type="logical" name="ODDONLYGW"> F  </i>
   <i type="logical" name="EVENONLYGW"> F  </i>
   <i type="int" name="NKREDLFX">     1</i>
   <i type="int" name="NKREDLFY">     1</i>
   <i type="int" name="NKREDLFZ">     1</i>
   <i type="int" name="MAXMEM">  2800</i>
   <i type="int" name="TELESCOPE">     0</i>
   <i type="int" name="TAUPAR">     1</i>
   <i type="int" name="OMEGAPAR">    -1</i>
   <i name="LAMBDA">      1.00000000</i>
  </separator>
  <separator name="External order field" >
   <i name="OFIELD_KAPPA">      0.00000000</i>
   <v name="OFIELD_K">      0.00000000      0.00000000      0.00000000</v>
   <i name="OFIELD_Q6_NEAR">      0.00000000</i>
   <i name="OFIELD_Q6_FAR">      0.00000000</i>
   <i name="OFIELD_A">      0.00000000</i>
  </separator>
  <separator name="solvation model" >
   <i type="logical" name="LSOL"> F  </i>
  </separator>
 </parameters>
 <atominfo>
  <atoms>     126 </atoms>
  <types>       4 </types>
  <array name="atoms" >
   <dimension dim="1">ion</dimension>
   <field type="string">element</field>
   <field type="int">atomtype</field>
   <set>
    <rc><c>N </c><c>   1</c></rc>
    <rc><c>N </c><c>   1</c></rc>
    <rc><c>N </c><c>   1</c></rc>
    <rc><c>N </c><c>   1</c></rc>
    <rc><c>N </c><c>   1</c></rc>
    <rc><c>N </c><c>   1</c></rc>
    <rc><c>N </c><c>   1</c></rc>
    <rc><c>N </c><c>   1</c></rc>
    <rc><c>N </c><c>   1</c></rc>
    <rc><c>N </c><c>   1</c></rc>
    <rc><c>N </c><c>   1</c></rc>
    <rc><c>N </c><c>   1</c></rc>
    <rc><c>N </c><c>   1</c></rc>
    <rc><c>N </c><c>   1</c></rc>
    <rc><c>N </c><c>   1</c></rc>
    <rc><c>N </c><c>   1</c></rc>
    <rc><c>N </c><c>   1</c></rc>
    <rc><c>N </c><c>   1</c></rc>
    <rc><c>N </c><c>   1</c></rc>
    <rc><c>N </c><c>   1</c></rc>
    <rc><c>N </c><c>   1</c></rc>
    <rc><c>N </c><c>   1</c></rc>
    <rc><c>N </c><c>   1</c></rc>
    <rc><c>N </c><c>   1</c></rc>
    <rc><c>H </c><c>   2</c></rc>
    <rc><c>H </c><c>   2</c></rc>
    <rc><c>H </c><c>   2</c></rc>
    <rc><c>H </c><c>   2</c></rc>
    <rc><c>H </c><c>   2</c></rc>
    <rc><c>H </c><c>   2</c></rc>
    <rc><c>H </c><c>   2</c></rc>
    <rc><c>H </c><c>   2</c></rc>
    <rc><c>H </c><c>   2</c></rc>
    <rc><c>H </c><c>   2</c></rc>
    <rc><c>H </c><c>   2</c></rc>
    <rc><c>H </c><c>   2</c></rc>
    <rc><c>H </c><c>   2</c></rc>
    <rc><c>H </c><c>   2</c></rc>
    <rc><c>H </c><c>   2</c></rc>
    <rc><c>H </c><c>   2</c></rc>
    <rc><c>H </c><c>   2</c></rc>
    <rc><c>H </c><c>   2</c></rc>
    <rc><c>H </c><c>   2</c></rc>
    <rc><c>H </c><c>   2</c></rc>
    <rc><c>H </c><c>   2</c></rc>
    <rc><c>H </c><c>   2</c></rc>
    <rc><c>H </c><c>   2</c></rc>
    <rc><c>H </c><c>   2</c></rc>
    <rc><c>H </c><c>   2</c></rc>
    <rc><c>H </c><c>   2</c></rc>
    <rc><c>H </c><c>   2</c></rc>
    <rc><c>H </c><c>   2</c></rc>
    <rc><c>H </c><c>   2</c></rc>
    <rc><c>H </c><c>   2</c></rc>
    <rc><c>H </c><c>   2</c></rc>
    <rc><c>H </c><c>   2</c></rc>
    <rc><c>H </c><c>   2</c></rc>
    <rc><c>H </c><c>   2</c></rc>
    <rc><c>H </c><c>   2</c></rc>
    <rc><c>H </c><c>   2</c></rc>
    <rc><c>H </c><c>   2</c></rc>
    <rc><c>H </c><c>   2</c></rc>
    <rc><c>H </c><c>   2</c></rc>
    <rc><c>H </c><c>   2</c></rc>
    <rc><c>H </c><c>   2</c></rc>
    <rc><c>H </c><c>   2</c></rc>
    <rc><c>O </c><c>   3</c></rc>
    <rc><c>O </c><c>   3</c></rc>
    <rc><c>O </c><c>   3</c></rc>
    <rc><c>O </c><c>   3</c></rc>
    <rc><c>O </c><c>   3</c></rc>
    <rc><c>O </c><c>   3</c></rc>
    <rc><c>O </c><c>   3</c></rc>
    <rc><c>O </c><c>   3</c></rc>
    <rc><c>O </c><c>   3</c></rc>
    <rc><c>O </c><c>   3</c></rc>
    <rc><c>O </c><c>   3</c></rc>
    <rc><c>O </c><c>   3</c></rc>
    <rc><c>C </c><c>   4</c></rc>
    <rc><c>C </c><c>   4</c></rc>
    <rc><c>C </c><c>   4</c></rc>
    <rc><c>C </c><c>   4</c></rc>
    <rc><c>C </c><c>   4</c></rc>
    <rc><c>C </c><c>   4</c></rc>
    <rc><c>C </c><c>   4</c></rc>
    <rc><c>C </c><c>   4</c></rc>
    <rc><c>C </c><c>   4</c></rc>
    <rc><c>C </c><c>   4</c></rc>
    <rc><c>C </c><c>   4</c></rc>
    <rc><c>C </c><c>   4</c></rc>
    <rc><c>C </c><c>   4</c></rc>
    <rc><c>C </c><c>   4</c></rc>
    <rc><c>C </c><c>   4</c></rc>
    <rc><c>C </c><c>   4</c></rc>
    <rc><c>C </c><c>   4</c></rc>
    <rc><c>C </c><c>   4</c></rc>
    <rc><c>C </c><c>   4</c></rc>
    <rc><c>C </c><c>   4</c></rc>
    <rc><c>C </c><c>   4</c></rc>
    <rc><c>C </c><c>   4</c></rc>
    <rc><c>C </c><c>   4</c></rc>
    <rc><c>C </c><c>   4</c></rc>
    <rc><c>C </c><c>   4</c></rc>
    <rc><c>C </c><c>   4</c></rc>
    <rc><c>C </c><c>   4</c></rc>
    <rc><c>C </c><c>   4</c></rc>
    <rc><c>C </c><c>   4</c></rc>
    <rc><c>C </c><c>   4</c></rc>
    <rc><c>C </c><c>   4</c></rc>
    <rc><c>C </c><c>   4</c></rc>
    <rc><c>C </c><c>   4</c></rc>
    <rc><c>C </c><c>   4</c></rc>
    <rc><c>C </c><c>   4</c></rc>
    <rc><c>C </c><c>   4</c></rc>
    <rc><c>C </c><c>   4</c></rc>
    <rc><c>C </c><c>   4</c></rc>
    <rc><c>C </c><c>   4</c></rc>
    <rc><c>C </c><c>   4</c></rc>
    <rc><c>C </c><c>   4</c></rc>
    <rc><c>C </c><c>   4</c></rc>
    <rc><c>C </c><c>   4</c></rc>
    <rc><c>C </c><c>   4</c></rc>
    <rc><c>C </c><c>   4</c></rc>
    <rc><c>C </c><c>   4</c></rc>
    <rc><c>C </c><c>   4</c></rc>
    <rc><c>C </c><c>   4</c></rc>
   </set>
  </array>
  <array name="atomtypes" >
   <dimension dim="1">type</dimension>
   <field type="int">atomspertype</field>
   <field type="string">element</field>
   <field>mass</field>
   <field>valence</field>
   <field type="string">pseudopotential</field>
   <set>
    <rc><c>  24</c><c>N </c><c>     14.00100000</c><c>      5.00000000</c><c>  PAW_PBE N 08Apr2002                   </c></rc>
    <rc><c>  42</c><c>H </c><c>      1.00000000</c><c>      1.00000000</c><c>  PAW_PBE H 15Jun2001                   </c></rc>
    <rc><c>  12</c><c>O </c><c>     16.00000000</c><c>      6.00000000</c><c>  PAW_PBE O 08Apr2002                   </c></rc>
    <rc><c>  48</c><c>C </c><c>     12.01100000</c><c>      4.00000000</c><c>  PAW_PBE C 08Apr2002                   </c></rc>
   </set>
  </array>
 </atominfo>
 <structure name="initialpos" >
  <crystal>
   <varray name="basis" >
    <v>      29.18816276       0.02749874       0.00000000 </v>
    <v>     -14.57038865      25.23503890       0.00000000 </v>
    <v>       0.00000000       0.00000000      20.00000000 </v>
   </varray>
   <i name="volume">  14739.30179988 </i>
   <varray name="rec_basis" >
    <v>       0.03424184       0.01977080       0.00000000 </v>
    <v>      -0.00003731       0.03960590       0.00000000 </v>
    <v>       0.00000000       0.00000000       0.05000000 </v>
   </varray>
  </crystal>
  <varray name="positions" >
   <v>       0.30199042       0.68915056       0.52794913 </v>
   <v>       0.31081025       0.61151295       0.52806276 </v>
   <v>       0.38828035       0.69794794       0.52794071 </v>
   <v>       0.22867710       0.60436342       0.53066956 </v>
   <v>       0.39556485       0.62289958       0.53054296 </v>
   <v>       0.37676494       0.77142209       0.53073439 </v>
   <v>       0.69945732       0.31001721       0.47497500 </v>
   <v>       0.69132902       0.38810278       0.47487203 </v>
   <v>       0.61348078       0.30200042       0.47704144 </v>
   <v>       0.77314655       0.39437467       0.47131772 </v>
   <v>       0.60699575       0.37757952       0.47529753 </v>
   <v>       0.62381656       0.22802603       0.47430478 </v>
   <v>       0.57486698       0.12220584       0.34826129 </v>
   <v>       0.43120237       0.93875590       0.40703193 </v>
   <v>       0.88008600       0.45061895       0.34577163 </v>
   <v>       0.06205699       0.48958054       0.40873025 </v>
   <v>       0.54850952       0.42500664       0.34881008 </v>
   <v>       0.50923402       0.56958941       0.40770924 </v>
   <v>       0.53119039       0.14842025       0.57704777 </v>
   <v>       0.51617742       0.89641179       0.63569491 </v>
   <v>       0.85179338       0.38278510       0.57576984 </v>
   <v>       0.10364377       0.62113699       0.63302840 </v>
   <v>       0.61798980       0.46866569       0.57770998 </v>
   <v>       0.37972418       0.48166156       0.63391750 </v>
   <v>       0.21819116       0.56623637       0.54144880 </v>
   <v>       0.43362979       0.65058969       0.54109805 </v>
   <v>       0.34901211       0.78178461       0.54115399 </v>
   <v>       0.78459511       0.43218961       0.45742762 </v>
   <v>       0.56899434       0.35111005       0.46260478 </v>
   <v>       0.64991474       0.21633760       0.46011815 </v>
   <v>       0.40219231       0.84394927       0.45376079 </v>
   <v>       0.53114807       0.02352076       0.38494608 </v>
   <v>       0.39964768       0.90868284       0.38402544 </v>
   <v>       0.43889514       0.97597746       0.39683412 </v>
   <v>       0.56775235       0.20172545       0.39532454 </v>
   <v>       0.54402951       0.20632342       0.47459409 </v>
   <v>       0.15648976       0.55622270       0.45475250 </v>
   <v>       0.97809732       0.50577073       0.38377277 </v>
   <v>       0.09218967       0.48825781       0.38566278 </v>
   <v>       0.02487343       0.46047589       0.39798455 </v>
   <v>       0.80012154       0.36474653       0.39282688 </v>
   <v>       0.79514902       0.33644980       0.47226187 </v>
   <v>       0.44310683       0.59813605       0.45424980 </v>
   <v>       0.49370817       0.46892284       0.38524386 </v>
   <v>       0.51072444       0.60125189       0.38485562 </v>
   <v>       0.53875899       0.56195077       0.39756779 </v>
   <v>       0.63559413       0.43315307       0.39561433 </v>
   <v>       0.66412563       0.45777248       0.47459542 </v>
   <v>       0.49553808       0.04542431       0.58810413 </v>
   <v>       0.53805212       0.98844993       0.59183183 </v>
   <v>       0.52321756       0.13314609       0.62389103 </v>
   <v>       0.55954608       0.18722135       0.57522361 </v>
   <v>       0.45503980       0.79010606       0.54102374 </v>
   <v>       0.42860975       0.80125703       0.61339295 </v>
   <v>       0.95447288       0.45018934       0.58793100 </v>
   <v>       0.01192379       0.55046506       0.58962175 </v>
   <v>       0.86657560       0.39047068       0.62285510 </v>
   <v>       0.81303153       0.37226048       0.57302986 </v>
   <v>       0.21008109       0.66425391       0.53959795 </v>
   <v>       0.19894647       0.62738690       0.61261228 </v>
   <v>       0.55067702       0.50440584       0.58855440 </v>
   <v>       0.45055779       0.46073407       0.59075885 </v>
   <v>       0.61055519       0.47652784       0.62454461 </v>
   <v>       0.62817731       0.44008698       0.57577655 </v>
   <v>       0.33592602       0.54448599       0.54034828 </v>
   <v>       0.37315813       0.57064938       0.61295605 </v>
   <v>       0.61808335       0.16417118       0.34707806 </v>
   <v>       0.55156234       0.09536063       0.29846922 </v>
   <v>       0.83831707       0.45220520       0.34334949 </v>
   <v>       0.90734032       0.45362476       0.29666290 </v>
   <v>       0.54779648       0.38197178       0.34797620 </v>
   <v>       0.54413185       0.44769833       0.29888232 </v>
   <v>       0.53766303       0.93281552       0.67752364 </v>
   <v>       0.51539417       0.85329145       0.64023467 </v>
   <v>       0.06669613       0.60770066       0.67363851 </v>
   <v>       0.14719094       0.66283929       0.63792008 </v>
   <v>       0.39339212       0.45829670       0.67456143 </v>
   <v>       0.33802601       0.48348901       0.63897073 </v>
   <v>       0.35539238       0.71756872       0.52830037 </v>
   <v>       0.28242949       0.63662981       0.52832551 </v>
   <v>       0.36324475       0.64443011       0.52829021 </v>
   <v>       0.64604258       0.28200689       0.47578932 </v>
   <v>       0.71933783       0.36260228       0.47407017 </v>
   <v>       0.63885457       0.35548690       0.47601409 </v>
   <v>       0.48941032       0.97069219       0.50406769 </v>
   <v>       0.45092372       0.92879582       0.46378146 </v>
   <v>       0.43283232       0.87598442       0.48353977 </v>
   <v>       0.50939006       0.02725247       0.48841209 </v>
   <v>       0.55139781       0.13725527       0.46269641 </v>
   <v>       0.55031772       0.10206641       0.41430792 </v>
   <v>       0.52923677       0.04795602       0.42479132 </v>
   <v>       0.56997696       0.19466823       0.44899150 </v>
   <v>       0.02986508       0.51783294       0.50369374 </v>
   <v>       0.07178914       0.52038700       0.46430274 </v>
   <v>       0.12444887       0.55536411       0.48392028 </v>
   <v>       0.97349827       0.48119396       0.48780505 </v>
   <v>       0.86394183       0.41298745       0.46081587 </v>
   <v>       0.89949936       0.44664926       0.41250101 </v>
   <v>       0.95338021       0.47975715       0.42364049 </v>
   <v>       0.80677015       0.37402784       0.44651963 </v>
   <v>       0.48236260       0.51055596       0.50407877 </v>
   <v>       0.47919418       0.54935612       0.46405916 </v>
   <v>       0.44430970       0.56721421       0.48372522 </v>
   <v>       0.51911456       0.49079506       0.48865905 </v>
   <v>       0.58730665       0.44911044       0.46308740 </v>
   <v>       0.55315713       0.44996611       0.41465178 </v>
   <v>       0.52007989       0.47095893       0.42506809 </v>
   <v>       0.62659713       0.43116753       0.44933429 </v>
   <v>       0.45203701       0.86253958       0.53944320 </v>
   <v>       0.49121359       0.90486633       0.57762832 </v>
   <v>       0.50816978       0.95739637       0.56042538 </v>
   <v>       0.51104513       0.06153148       0.53860005 </v>
   <v>       0.53187562       0.11602196       0.52710082 </v>
   <v>       0.42926176       0.80507422       0.55854959 </v>
   <v>       0.13775276       0.58893943       0.53886769 </v>
   <v>       0.09541013       0.58666335       0.57613556 </v>
   <v>       0.04300015       0.55092609       0.55900277 </v>
   <v>       0.93885245       0.44911515       0.53795951 </v>
   <v>       0.88457057       0.41535141       0.52580824 </v>
   <v>       0.19512202       0.62366141       0.55781168 </v>
   <v>       0.41120436       0.54741041       0.53911622 </v>
   <v>       0.41387560       0.50765837       0.57677114 </v>
   <v>       0.44969280       0.49101459       0.55975152 </v>
   <v>       0.55153400       0.48907882       0.53900633 </v>
   <v>       0.58524211       0.46831765       0.52759199 </v>
   <v>       0.37654915       0.57020254       0.55813051 </v>
  </varray>
 </structure>
 <calculation>
  <scstep>
   <time name="dav">  391.72  396.00</time>
   <time name="total">  392.00  396.28</time>
   <energy>
    <i name="alphaZ">     54.42795788 </i>
    <i name="ewald">  54478.60231504 </i>
    <i name="hartreedc"> -70260.09669457 </i>
    <i name="XCdc">   1608.09912926 </i>
    <i name="pawpsdc">  39428.34649618 </i>
    <i name="pawaedc"> -39519.55291925 </i>
    <i name="eentropy">     -0.00000000 </i>
    <i name="bandstr">  -5767.18175383 </i>
    <i name="atom">  19124.66789732 </i>
    <i name="e_fr_energy">   -852.68757197 </i>
    <i name="e_wo_entrp">   -852.68757197 </i>
    <i name="e_0_energy">   -852.68757197 </i>
   </energy>
  </scstep>
  <scstep>
   <time name="dav">  437.90  442.71</time>
   <time name="total">  437.92  442.74</time>
   <energy>
    <i name="e_fr_energy">   -853.28225681 </i>
    <i name="e_wo_entrp">   -853.28225681 </i>
    <i name="e_0_energy">   -853.28225681 </i>
   </energy>
  </scstep>
  <scstep>
   <time name="dav">  491.56  496.93</time>
   <time name="total">  491.57  496.95</time>
   <energy>
    <i name="e_fr_energy">   -853.29620352 </i>
    <i name="e_wo_entrp">   -853.29620352 </i>
    <i name="e_0_energy">   -853.29620352 </i>
   </energy>
  </scstep>
  <scstep>
   <time name="dav">  436.11  440.92</time>
   <time name="total">  436.12  440.93</time>
   <energy>
    <i name="e_fr_energy">   -853.29652722 </i>
    <i name="e_wo_entrp">   -853.29652722 </i>
    <i name="e_0_energy">   -853.29652722 </i>
   </energy>
  </scstep>
  <scstep>
   <time name="dav">  407.23  411.67</time>
   <time name="total">  407.24  411.68</time>
   <energy>
    <i name="e_fr_energy">   -853.29654055 </i>
    <i name="e_wo_entrp">   -853.29654055 </i>
    <i name="e_0_energy">   -853.29654055 </i>
   </energy>
  </scstep>
  <scstep>
   <time name="dav">  335.03  338.77</time>
   <time name="total">  335.05  338.79</time>
   <energy>
    <i name="alphaZ">     54.42795788 </i>
    <i name="ewald">  54478.60231504 </i>
    <i name="hartreedc"> -70260.09669457 </i>
    <i name="XCdc">   1608.09912926 </i>
    <i name="pawpsdc">  39428.34649618 </i>
    <i name="pawaedc"> -39519.55291925 </i>
    <i name="eentropy">     -0.00000000 </i>
    <i name="bandstr">  -5767.79072308 </i>
    <i name="atom">  19124.66789732 </i>
    <i name="e_fr_energy">   -853.29654122 </i>
    <i name="e_wo_entrp">   -853.29654122 </i>
    <i name="e_0_energy">   -853.29654122 </i>
   </energy>
  </scstep>
  <structure>
   <crystal>
    <varray name="basis" >
     <v>      29.18816276       0.02749874       0.00000000 </v>
     <v>     -14.57038865      25.23503890       0.00000000 </v>
     <v>       0.00000000       0.00000000      20.00000000 </v>
    </varray>
    <i name="volume">  14739.30179988 </i>
    <varray name="rec_basis" >
     <v>       0.03424184       0.01977080       0.00000000 </v>
     <v>      -0.00003731       0.03960590       0.00000000 </v>
     <v>       0.00000000       0.00000000       0.05000000 </v>
    </varray>
   </crystal>
   <varray name="positions" >
    <v>       0.30199042       0.68915056       0.52794913 </v>
    <v>       0.31081025       0.61151295       0.52806276 </v>
    <v>       0.38828035       0.69794794       0.52794071 </v>
    <v>       0.22867710       0.60436342       0.53066956 </v>
    <v>       0.39556485       0.62289958       0.53054296 </v>
    <v>       0.37676494       0.77142209       0.53073439 </v>
    <v>       0.69945732       0.31001721       0.47497500 </v>
    <v>       0.69132902       0.38810278       0.47487203 </v>
    <v>       0.61348078       0.30200042       0.47704144 </v>
    <v>       0.77314655       0.39437467       0.47131772 </v>
    <v>       0.60699575       0.37757952       0.47529753 </v>
    <v>       0.62381656       0.22802603       0.47430478 </v>
    <v>       0.57486698       0.12220584       0.34826129 </v>
    <v>       0.43120237       0.93875590       0.40703193 </v>
    <v>       0.88008600       0.45061895       0.34577163 </v>
    <v>       0.06205699       0.48958054       0.40873025 </v>
    <v>       0.54850952       0.42500664       0.34881008 </v>
    <v>       0.50923402       0.56958941       0.40770924 </v>
    <v>       0.53119039       0.14842025       0.57704777 </v>
    <v>       0.51617742       0.89641179       0.63569491 </v>
    <v>       0.85179338       0.38278510       0.57576984 </v>
    <v>       0.10364377       0.62113699       0.63302840 </v>
    <v>       0.61798980       0.46866569       0.57770998 </v>
    <v>       0.37972418       0.48166156       0.63391750 </v>
    <v>       0.21819116       0.56623637       0.54144880 </v>
    <v>       0.43362979       0.65058969       0.54109805 </v>
    <v>       0.34901211       0.78178461       0.54115399 </v>
    <v>       0.78459511       0.43218961       0.45742762 </v>
    <v>       0.56899434       0.35111005       0.46260478 </v>
    <v>       0.64991474       0.21633760       0.46011815 </v>
    <v>       0.40219231       0.84394927       0.45376079 </v>
    <v>       0.53114807       0.02352076       0.38494608 </v>
    <v>       0.39964768       0.90868284       0.38402544 </v>
    <v>       0.43889514       0.97597746       0.39683412 </v>
    <v>       0.56775235       0.20172545       0.39532454 </v>
    <v>       0.54402951       0.20632342       0.47459409 </v>
    <v>       0.15648976       0.55622270       0.45475250 </v>
    <v>       0.97809732       0.50577073       0.38377277 </v>
    <v>       0.09218967       0.48825781       0.38566278 </v>
    <v>       0.02487343       0.46047589       0.39798455 </v>
    <v>       0.80012154       0.36474653       0.39282688 </v>
    <v>       0.79514902       0.33644980       0.47226187 </v>
    <v>       0.44310683       0.59813605       0.45424980 </v>
    <v>       0.49370817       0.46892284       0.38524386 </v>
    <v>       0.51072444       0.60125189       0.38485562 </v>
    <v>       0.53875899       0.56195077       0.39756779 </v>
    <v>       0.63559413       0.43315307       0.39561433 </v>
    <v>       0.66412563       0.45777248       0.47459542 </v>
    <v>       0.49553808       0.04542431       0.58810413 </v>
    <v>       0.53805212       0.98844993       0.59183183 </v>
    <v>       0.52321756       0.13314609       0.62389103 </v>
    <v>       0.55954608       0.18722135       0.57522361 </v>
    <v>       0.45503980       0.79010606       0.54102374 </v>
    <v>       0.42860975       0.80125703       0.61339295 </v>
    <v>       0.95447288       0.45018934       0.58793100 </v>
    <v>       0.01192379       0.55046506       0.58962175 </v>
    <v>       0.86657560       0.39047068       0.62285510 </v>
    <v>       0.81303153       0.37226048       0.57302986 </v>
    <v>       0.21008109       0.66425391       0.53959795 </v>
    <v>       0.19894647       0.62738690       0.61261228 </v>
    <v>       0.55067702       0.50440584       0.58855440 </v>
    <v>       0.45055779       0.46073407       0.59075885 </v>
    <v>       0.61055519       0.47652784       0.62454461 </v>
    <v>       0.62817731       0.44008698       0.57577655 </v>
    <v>       0.33592602       0.54448599       0.54034828 </v>
    <v>       0.37315813       0.57064938       0.61295605 </v>
    <v>       0.61808335       0.16417118       0.34707806 </v>
    <v>       0.55156234       0.09536063       0.29846922 </v>
    <v>       0.83831707       0.45220520       0.34334949 </v>
    <v>       0.90734032       0.45362476       0.29666290 </v>
    <v>       0.54779648       0.38197178       0.34797620 </v>
    <v>       0.54413185       0.44769833       0.29888232 </v>
    <v>       0.53766303       0.93281552       0.67752364 </v>
    <v>       0.51539417       0.85329145       0.64023467 </v>
    <v>       0.06669613       0.60770066       0.67363851 </v>
    <v>       0.14719094       0.66283929       0.63792008 </v>
    <v>       0.39339212       0.45829670       0.67456143 </v>
    <v>       0.33802601       0.48348901       0.63897073 </v>
    <v>       0.35539238       0.71756872       0.52830037 </v>
    <v>       0.28242949       0.63662981       0.52832551 </v>
    <v>       0.36324475       0.64443011       0.52829021 </v>
    <v>       0.64604258       0.28200689       0.47578932 </v>
    <v>       0.71933783       0.36260228       0.47407017 </v>
    <v>       0.63885457       0.35548690       0.47601409 </v>
    <v>       0.48941032       0.97069219       0.50406769 </v>
    <v>       0.45092372       0.92879582       0.46378146 </v>
    <v>       0.43283232       0.87598442       0.48353977 </v>
    <v>       0.50939006       0.02725247       0.48841209 </v>
    <v>       0.55139781       0.13725527       0.46269641 </v>
    <v>       0.55031772       0.10206641       0.41430792 </v>
    <v>       0.52923677       0.04795602       0.42479132 </v>
    <v>       0.56997696       0.19466823       0.44899150 </v>
    <v>       0.02986508       0.51783294       0.50369374 </v>
    <v>       0.07178914       0.52038700       0.46430274 </v>
    <v>       0.12444887       0.55536411       0.48392028 </v>
    <v>       0.97349827       0.48119396       0.48780505 </v>
    <v>       0.86394183       0.41298745       0.46081587 </v>
    <v>       0.89949936       0.44664926       0.41250101 </v>
    <v>       0.95338021       0.47975715       0.42364049 </v>
    <v>       0.80677015       0.37402784       0.44651963 </v>
    <v>       0.48236260       0.51055596       0.50407877 </v>
    <v>       0.47919418       0.54935612       0.46405916 </v>
    <v>       0.44430970       0.56721421       0.48372522 </v>
    <v>       0.51911456       0.49079506       0.48865905 </v>
    <v>       0.58730665       0.44911044       0.46308740 </v>
    <v>       0.55315713       0.44996611       0.41465178 </v>
    <v>       0.52007989       0.47095893       0.42506809 </v>
    <v>       0.62659713       0.43116753       0.44933429 </v>
    <v>       0.45203701       0.86253958       0.53944320 </v>
    <v>       0.49121359       0.90486633       0.57762832 </v>
    <v>       0.50816978       0.95739637       0.56042538 </v>
    <v>       0.51104513       0.06153148       0.53860005 </v>
    <v>       0.53187562       0.11602196       0.52710082 </v>
    <v>       0.42926176       0.80507422       0.55854959 </v>
    <v>       0.13775276       0.58893943       0.53886769 </v>
    <v>       0.09541013       0.58666335       0.57613556 </v>
    <v>       0.04300015       0.55092609       0.55900277 </v>
    <v>       0.93885245       0.44911515       0.53795951 </v>
    <v>       0.88457057       0.41535141       0.52580824 </v>
    <v>       0.19512202       0.62366141       0.55781168 </v>
    <v>       0.41120436       0.54741041       0.53911622 </v>
    <v>       0.41387560       0.50765837       0.57677114 </v>
    <v>       0.44969280       0.49101459       0.55975152 </v>
    <v>       0.55153400       0.48907882       0.53900633 </v>
    <v>       0.58524211       0.46831765       0.52759199 </v>
    <v>       0.37654915       0.57020254       0.55813051 </v>
   </varray>
  </structure>
  <varray name="forces" >
   <v>      -0.00593850       0.00529204      -0.00100673 </v>
   <v>      -0.00039699      -0.00089193       0.00613165 </v>
   <v>       0.00050172       0.00092720      -0.00150227 </v>
   <v>      -0.00073922      -0.00084822       0.00142764 </v>
   <v>       0.00125814      -0.00039051      -0.00006085 </v>
   <v>       0.00068028      -0.00028559      -0.00240715 </v>
   <v>      -0.00011508      -0.00370038      -0.00456621 </v>
   <v>      -0.00399175       0.00026905       0.00104000 </v>
   <v>       0.00242316       0.00162336       0.00041116 </v>
   <v>      -0.00642022       0.00259344       0.00515282 </v>
   <v>      -0.00038275       0.00476545       0.00057025 </v>
   <v>       0.00665597      -0.00215933      -0.00502039 </v>
   <v>       0.00402250       0.00390952       0.00657554 </v>
   <v>      -0.00156747       0.00043280      -0.00087986 </v>
   <v>      -0.00236799      -0.00166258      -0.00208747 </v>
   <v>       0.00546171       0.00035300      -0.00258237 </v>
   <v>       0.00594254      -0.00267489      -0.00210613 </v>
   <v>       0.00132579      -0.00027579      -0.00215193 </v>
   <v>      -0.00010451       0.00037133       0.00048048 </v>
   <v>      -0.00031100      -0.00429248       0.00385826 </v>
   <v>      -0.00234584       0.00252765       0.00077299 </v>
   <v>       0.00002040       0.00234596       0.00311982 </v>
   <v>       0.00051065       0.00013943       0.00030145 </v>
   <v>      -0.00023827      -0.00031929       0.00173797 </v>
   <v>      -0.00003022       0.00090764       0.00037136 </v>
   <v>      -0.00039155       0.00002011      -0.00013036 </v>
   <v>      -0.00185633      -0.00033114       0.00094627 </v>
   <v>       0.00402547       0.00003387       0.00184967 </v>
   <v>      -0.00184369      -0.00194004      -0.00294680 </v>
   <v>      -0.00134005       0.00008053      -0.00061526 </v>
   <v>       0.00029818       0.00074130       0.00138456 </v>
   <v>       0.00018709      -0.00109021      -0.00061908 </v>
   <v>      -0.00009063       0.00096443       0.00092842 </v>
   <v>      -0.00049970      -0.00069826       0.00018830 </v>
   <v>      -0.00025721      -0.00081798       0.00047010 </v>
   <v>       0.00194541      -0.00019559      -0.00043566 </v>
   <v>      -0.00185559      -0.00084161       0.00355608 </v>
   <v>       0.00121944      -0.00091389      -0.00145372 </v>
   <v>      -0.00341553       0.00020231       0.00763922 </v>
   <v>       0.00136858      -0.00159352       0.00171666 </v>
   <v>      -0.00122887      -0.00079745      -0.00038455 </v>
   <v>       0.00015099       0.00051459      -0.00070436 </v>
   <v>      -0.00065235       0.00063186      -0.00035327 </v>
   <v>       0.00071986      -0.00043423      -0.00157730 </v>
   <v>      -0.00096716       0.00156572      -0.00046566 </v>
   <v>       0.00106649      -0.00118918      -0.00071134 </v>
   <v>       0.00149269      -0.00054059      -0.00126599 </v>
   <v>       0.00112749       0.00218563      -0.00019850 </v>
   <v>      -0.00023542       0.00021235      -0.00083058 </v>
   <v>       0.00042515       0.00143864       0.00187688 </v>
   <v>      -0.00013200      -0.00007594      -0.00017379 </v>
   <v>      -0.00054580       0.00019761       0.00002631 </v>
   <v>       0.00039631       0.00072600       0.00057769 </v>
   <v>       0.00004976       0.00053265      -0.00028589 </v>
   <v>      -0.00205447       0.00121089      -0.00240147 </v>
   <v>      -0.00685678       0.00062059       0.00375296 </v>
   <v>      -0.00222301       0.00159120      -0.00321612 </v>
   <v>       0.00497388       0.00264849       0.00049929 </v>
   <v>      -0.00134916       0.00082607       0.00244258 </v>
   <v>       0.00179667      -0.00112762       0.00374756 </v>
   <v>      -0.00077978      -0.00111122      -0.00023695 </v>
   <v>       0.00072503      -0.00148217       0.00045251 </v>
   <v>      -0.00057797      -0.00125861      -0.00162244 </v>
   <v>       0.00246015      -0.00187064      -0.00063829 </v>
   <v>      -0.00035553       0.00088130       0.00063578 </v>
   <v>       0.00117948       0.00017132       0.00075075 </v>
   <v>      -0.00143454      -0.00323293       0.00038601 </v>
   <v>      -0.00268724      -0.00498775      -0.00649356 </v>
   <v>      -0.00253466       0.00061927       0.00104369 </v>
   <v>       0.00572688      -0.00081880      -0.00212333 </v>
   <v>      -0.00040122       0.00101964      -0.00190485 </v>
   <v>       0.00202027       0.00188770      -0.00265664 </v>
   <v>      -0.00182719       0.00175264       0.00224616 </v>
   <v>      -0.00128722      -0.00275360       0.00121935 </v>
   <v>      -0.00846542      -0.00023324      -0.00360818 </v>
   <v>      -0.00202040       0.00112454       0.00253473 </v>
   <v>       0.00117088      -0.00083892       0.00135423 </v>
   <v>      -0.00213476       0.00050073      -0.00077602 </v>
   <v>      -0.00164952       0.00318738       0.00071126 </v>
   <v>      -0.00190302       0.00582034      -0.00150340 </v>
   <v>       0.00113578       0.00111994       0.00101089 </v>
   <v>      -0.00034808       0.00033239      -0.00337248 </v>
   <v>       0.00453191       0.00179945      -0.00358992 </v>
   <v>       0.00503752       0.00251079      -0.00322584 </v>
   <v>      -0.00172567       0.00096686      -0.00125689 </v>
   <v>       0.00077569       0.00104671       0.00096977 </v>
   <v>       0.00006193      -0.00170909       0.00110331 </v>
   <v>       0.00025223      -0.00202923      -0.00125425 </v>
   <v>      -0.00023170       0.00259022       0.00044667 </v>
   <v>       0.00070362      -0.00474414      -0.00002058 </v>
   <v>      -0.00139899       0.00282907       0.00253000 </v>
   <v>       0.00077544       0.00041474      -0.00004889 </v>
   <v>       0.00211173       0.00160198      -0.00499180 </v>
   <v>       0.00722524       0.00199416       0.00094738 </v>
   <v>      -0.00133334      -0.00075811      -0.00109596 </v>
   <v>      -0.00348276       0.00019459       0.00413053 </v>
   <v>       0.00307316       0.00042451      -0.00032013 </v>
   <v>       0.00010784      -0.00035774      -0.00054198 </v>
   <v>       0.00088195      -0.00014100      -0.00349654 </v>
   <v>       0.00545225      -0.00128064      -0.00119606 </v>
   <v>       0.00131169      -0.00251177      -0.00103068 </v>
   <v>      -0.00001524      -0.00167635       0.00134958 </v>
   <v>      -0.00116850      -0.00118052       0.00101598 </v>
   <v>      -0.00012986      -0.00029773      -0.00115116 </v>
   <v>       0.00099540      -0.00025594      -0.00174270 </v>
   <v>       0.00023878       0.00024156      -0.00079195 </v>
   <v>       0.00017218      -0.00124411      -0.00002564 </v>
   <v>       0.00065149       0.00065283       0.00068307 </v>
   <v>      -0.00047729      -0.00057033       0.00049486 </v>
   <v>      -0.00198644       0.00049440      -0.00113864 </v>
   <v>      -0.00019873      -0.00172311       0.00057008 </v>
   <v>       0.00008120      -0.00012867       0.00166169 </v>
   <v>      -0.00061353      -0.00214481       0.00028612 </v>
   <v>       0.00066492      -0.00175897       0.00118132 </v>
   <v>       0.00149918      -0.00199253      -0.00099141 </v>
   <v>      -0.00465142      -0.00013026       0.00381217 </v>
   <v>       0.00401556      -0.00030818      -0.00105504 </v>
   <v>      -0.00141119      -0.00212909       0.00025251 </v>
   <v>      -0.00077288      -0.00142453       0.00084624 </v>
   <v>      -0.00126853       0.00066689       0.00234846 </v>
   <v>      -0.00085986       0.00178857      -0.00027886 </v>
   <v>       0.00035791       0.00024280      -0.00288178 </v>
   <v>       0.00055533       0.00021756      -0.00061065 </v>
   <v>      -0.00051920      -0.00056114      -0.00119738 </v>
   <v>      -0.00058983      -0.00111471       0.00006179 </v>
   <v>      -0.00201237      -0.00164880       0.00142104 </v>
  </varray>
  <varray name="stress" >
   <v>      -0.00268572      -0.00076891      -0.00032247 </v>
   <v>      -0.00076891      -0.00675532       0.01195957 </v>
   <v>      -0.00032247       0.01195957      -0.25036388 </v>
  </varray>
  <energy>
   <i name="e_fr_energy">   -855.97162908 </i>
   <i name="e_wo_entrp">   -855.97162908 </i>
   <i name="e_0_energy">     -0.00000000 </i>
  </energy>
  <time name="totalsc"> 2890.52 2923.17</time>
  <eigenvalues>
   <array>
    <dimension dim="1">band</dimension>
    <dimension dim="2">kpoint</dimension>
    <dimension dim="3">spin</dimension>
    <field>eigene</field>
    <field>occ</field>
    <set>
     <set comment="spin 1">
      <set comment="kpoint 1">
       <r>  -30.6553    1.0000 </r>
       <r>  -30.6519    1.0000 </r>
       <r>  -30.6511    1.0000 </r>
       <r>  -29.9642    1.0000 </r>
       <r>  -29.9574    1.0000 </r>
       <r>  -29.9471    1.0000 </r>
       <r>  -26.2742    1.0000 </r>
       <r>  -26.2699    1.0000 </r>
       <r>  -26.2692    1.0000 </r>
       <r>  -25.6046    1.0000 </r>
       <r>  -25.5428    1.0000 </r>
       <r>  -25.5325    1.0000 </r>
       <r>  -25.5241    1.0000 </r>
       <r>  -25.4206    1.0000 </r>
       <r>  -24.0215    1.0000 </r>
       <r>  -24.0136    1.0000 </r>
       <r>  -23.8466    1.0000 </r>
       <r>  -23.8446    1.0000 </r>
       <r>  -23.6014    1.0000 </r>
       <r>  -23.5852    1.0000 </r>
       <r>  -23.5802    1.0000 </r>
       <r>  -23.4975    1.0000 </r>
       <r>  -23.4119    1.0000 </r>
       <r>  -23.4103    1.0000 </r>
       <r>  -22.5080    1.0000 </r>
       <r>  -22.4792    1.0000 </r>
       <r>  -21.8774    1.0000 </r>
       <r>  -21.8743    1.0000 </r>
       <r>  -21.8183    1.0000 </r>
       <r>  -21.6612    1.0000 </r>
       <r>  -21.6582    1.0000 </r>
       <r>  -21.4881    1.0000 </r>
       <r>  -21.3553    1.0000 </r>
       <r>  -21.3527    1.0000 </r>
       <r>  -21.1300    1.0000 </r>
       <r>  -21.1276    1.0000 </r>
       <r>  -20.2728    1.0000 </r>
       <r>  -20.2703    1.0000 </r>
       <r>  -20.2688    1.0000 </r>
       <r>  -19.2999    1.0000 </r>
       <r>  -19.2963    1.0000 </r>
       <r>  -19.2914    1.0000 </r>
       <r>  -19.2042    1.0000 </r>
       <r>  -19.2018    1.0000 </r>
       <r>  -19.1695    1.0000 </r>
       <r>  -18.9803    1.0000 </r>
       <r>  -18.9786    1.0000 </r>
       <r>  -18.8780    1.0000 </r>
       <r>  -17.8735    1.0000 </r>
       <r>  -17.8702    1.0000 </r>
       <r>  -17.6946    1.0000 </r>
       <r>  -17.5067    1.0000 </r>
       <r>  -17.5041    1.0000 </r>
       <r>  -17.4077    1.0000 </r>
       <r>  -16.9149    1.0000 </r>
       <r>  -16.9115    1.0000 </r>
       <r>  -16.7885    1.0000 </r>
       <r>  -16.6248    1.0000 </r>
       <r>  -16.6232    1.0000 </r>
       <r>  -16.4750    1.0000 </r>
       <r>  -15.8814    1.0000 </r>
       <r>  -15.8791    1.0000 </r>
       <r>  -15.5842    1.0000 </r>
       <r>  -15.5822    1.0000 </r>
       <r>  -15.4627    1.0000 </r>
       <r>  -15.3426    1.0000 </r>
       <r>  -15.1490    1.0000 </r>
       <r>  -15.1472    1.0000 </r>
       <r>  -14.9875    1.0000 </r>
       <r>  -14.9836    1.0000 </r>
       <r>  -14.8777    1.0000 </r>
       <r>  -14.7618    1.0000 </r>
       <r>  -14.7594    1.0000 </r>
       <r>  -14.4096    1.0000 </r>
       <r>  -14.3722    1.0000 </r>
       <r>  -14.2267    1.0000 </r>
       <r>  -14.2252    1.0000 </r>
       <r>  -14.1546    1.0000 </r>
       <r>  -13.6786    1.0000 </r>
       <r>  -13.6140    1.0000 </r>
       <r>  -13.6129    1.0000 </r>
       <r>  -13.5426    1.0000 </r>
       <r>  -13.5417    1.0000 </r>
       <r>  -13.4994    1.0000 </r>
       <r>  -13.3846    1.0000 </r>
       <r>  -13.3344    1.0000 </r>
       <r>  -13.3309    1.0000 </r>
       <r>  -13.2207    1.0000 </r>
       <r>  -13.0360    1.0000 </r>
       <r>  -13.0351    1.0000 </r>
       <r>  -13.0207    1.0000 </r>
       <r>  -12.8283    1.0000 </r>
       <r>  -12.8273    1.0000 </r>
       <r>  -12.8005    1.0000 </r>
       <r>  -12.7867    1.0000 </r>
       <r>  -12.7043    1.0000 </r>
       <r>  -12.7010    1.0000 </r>
       <r>  -12.5323    1.0000 </r>
       <r>  -12.4949    1.0000 </r>
       <r>  -12.4934    1.0000 </r>
       <r>  -12.4176    1.0000 </r>
       <r>  -12.4164    1.0000 </r>
       <r>  -12.4109    1.0000 </r>
       <r>  -12.2293    1.0000 </r>
       <r>  -12.2280    1.0000 </r>
       <r>  -12.2194    1.0000 </r>
       <r>  -12.0451    1.0000 </r>
       <r>  -12.0441    1.0000 </r>
       <r>  -12.0335    1.0000 </r>
       <r>  -11.9174    1.0000 </r>
       <r>  -11.8999    1.0000 </r>
       <r>  -11.8975    1.0000 </r>
       <r>  -11.7854    1.0000 </r>
       <r>  -11.7825    1.0000 </r>
       <r>  -11.7604    1.0000 </r>
       <r>  -11.6438    1.0000 </r>
       <r>  -11.6399    1.0000 </r>
       <r>  -11.4423    1.0000 </r>
       <r>  -11.3247    1.0000 </r>
       <r>  -11.2736    1.0000 </r>
       <r>  -11.2695    1.0000 </r>
       <r>  -11.1940    1.0000 </r>
       <r>  -11.1906    1.0000 </r>
       <r>  -11.0624    1.0000 </r>
       <r>  -11.0527    1.0000 </r>
       <r>  -11.0496    1.0000 </r>
       <r>  -10.9893    1.0000 </r>
       <r>  -10.7938    1.0000 </r>
       <r>  -10.7489    1.0000 </r>
       <r>  -10.7462    1.0000 </r>
       <r>  -10.6688    1.0000 </r>
       <r>  -10.6671    1.0000 </r>
       <r>  -10.6526    1.0000 </r>
       <r>  -10.5502    1.0000 </r>
       <r>  -10.4314    1.0000 </r>
       <r>  -10.4303    1.0000 </r>
       <r>  -10.2692    1.0000 </r>
       <r>  -10.2577    1.0000 </r>
       <r>  -10.2503    1.0000 </r>
       <r>  -10.0776    1.0000 </r>
       <r>   -9.9847    1.0000 </r>
       <r>   -9.9782    1.0000 </r>
       <r>   -9.9758    1.0000 </r>
       <r>   -9.8863    1.0000 </r>
       <r>   -9.8827    1.0000 </r>
       <r>   -9.7811    1.0000 </r>
       <r>   -9.7011    1.0000 </r>
       <r>   -9.7009    1.0000 </r>
       <r>   -9.6519    1.0000 </r>
       <r>   -9.4668    1.0000 </r>
       <r>   -9.4386    1.0000 </r>
       <r>   -9.4363    1.0000 </r>
       <r>   -9.3061    1.0000 </r>
       <r>   -9.3029    1.0000 </r>
       <r>   -9.2160    1.0000 </r>
       <r>   -9.1381    1.0000 </r>
       <r>   -9.1269    1.0000 </r>
       <r>   -9.1245    1.0000 </r>
       <r>   -8.7587    1.0000 </r>
       <r>   -8.5938    1.0000 </r>
       <r>   -8.5563    1.0000 </r>
       <r>   -8.5543    1.0000 </r>
       <r>   -8.5066    1.0000 </r>
       <r>   -8.3814    1.0000 </r>
       <r>   -8.3734    1.0000 </r>
       <r>   -8.3272    1.0000 </r>
       <r>   -8.3260    1.0000 </r>
       <r>   -8.2463    1.0000 </r>
       <r>   -8.2271    1.0000 </r>
       <r>   -8.2248    1.0000 </r>
       <r>   -7.9159    1.0000 </r>
       <r>   -7.9076    1.0000 </r>
       <r>   -7.9035    1.0000 </r>
       <r>   -7.5611    1.0000 </r>
       <r>   -7.5495    1.0000 </r>
       <r>   -7.5466    1.0000 </r>
       <r>   -7.2704    1.0000 </r>
       <r>   -7.2662    1.0000 </r>
       <r>   -7.2590    1.0000 </r>
       <r>   -7.0593    1.0000 </r>
       <r>   -7.0572    1.0000 </r>
       <r>   -7.0566    1.0000 </r>
       <r>   -6.9483    1.0000 </r>
       <r>   -6.9240    1.0000 </r>
       <r>   -6.9160    1.0000 </r>
       <r>   -6.6014    1.0000 </r>
       <r>   -6.5961    1.0000 </r>
       <r>   -6.5825    1.0000 </r>
       <r>   -6.4900    1.0000 </r>
       <r>   -6.4732    1.0000 </r>
       <r>   -6.4706    1.0000 </r>
       <r>   -6.2532    1.0000 </r>
       <r>   -6.2457    1.0000 </r>
       <r>   -6.2424    1.0000 </r>
       <r>   -6.0560    1.0000 </r>
       <r>   -6.0490    1.0000 </r>
       <r>   -6.0302    1.0000 </r>
       <r>   -6.0229    1.0000 </r>
       <r>   -6.0198    1.0000 </r>
       <r>   -5.8574    1.0000 </r>
       <r>   -5.7848    1.0000 </r>
       <r>   -5.7815    1.0000 </r>
       <r>   -5.6057    1.0000 </r>
       <r>   -5.5971    1.0000 </r>
       <r>   -5.5551    1.0000 </r>
       <r>   -5.4961    1.0000 </r>
       <r>   -5.4881    1.0000 </r>
       <r>   -5.4849    1.0000 </r>
       <r>   -5.3596    1.0000 </r>
       <r>   -5.3580    1.0000 </r>
       <r>   -5.2777    1.0000 </r>
       <r>   -5.2605    1.0000 </r>
       <r>   -5.2546    1.0000 </r>
       <r>   -3.2566    0.0000 </r>
       <r>   -3.2527    0.0000 </r>
       <r>   -3.2513    0.0000 </r>
       <r>   -2.7516    0.0000 </r>
       <r>   -2.7479    0.0000 </r>
       <r>   -2.7418    0.0000 </r>
       <r>   -1.9521    0.0000 </r>
       <r>   -1.9457    0.0000 </r>
       <r>   -1.9424    0.0000 </r>
       <r>   -1.2237    0.0000 </r>
       <r>   -1.2223    0.0000 </r>
       <r>   -1.2073    0.0000 </r>
       <r>   -1.0773    0.0000 </r>
       <r>   -1.0706    0.0000 </r>
       <r>   -1.0651    0.0000 </r>
       <r>   -0.9517    0.0000 </r>
       <r>   -0.9476    0.0000 </r>
       <r>   -0.7421    0.0000 </r>
       <r>   -0.7409    0.0000 </r>
       <r>   -0.6888    0.0000 </r>
       <r>   -0.5434    0.0000 </r>
       <r>   -0.5393    0.0000 </r>
       <r>   -0.5368    0.0000 </r>
       <r>   -0.4810    0.0000 </r>
       <r>   -0.4594    0.0000 </r>
       <r>   -0.4528    0.0000 </r>
       <r>   -0.3486    0.0000 </r>
       <r>   -0.3469    0.0000 </r>
       <r>   -0.1105    0.0000 </r>
       <r>    0.0510    0.0000 </r>
       <r>    0.0540    0.0000 </r>
       <r>    0.0695    0.0000 </r>
       <r>    0.1088    0.0000 </r>
       <r>    0.2117    0.0000 </r>
       <r>    0.2133    0.0000 </r>
       <r>    0.2752    0.0000 </r>
       <r>    0.2781    0.0000 </r>
       <r>    0.3676    0.0000 </r>
       <r>    0.3784    0.0000 </r>
       <r>    0.3805    0.0000 </r>
       <r>    0.4871    0.0000 </r>
       <r>    0.5331    0.0000 </r>
       <r>    0.5781    0.0000 </r>
       <r>    0.5862    0.0000 </r>
       <r>    0.5880    0.0000 </r>
       <r>    0.6567    0.0000 </r>
       <r>    0.7030    0.0000 </r>
       <r>    0.7055    0.0000 </r>
       <r>    0.7586    0.0000 </r>
       <r>    0.7753    0.0000 </r>
       <r>    0.7773    0.0000 </r>
       <r>    0.8267    0.0000 </r>
       <r>    0.8357    0.0000 </r>
       <r>    0.8372    0.0000 </r>
       <r>    0.8946    0.0000 </r>
       <r>    0.8955    0.0000 </r>
       <r>    0.9109    0.0000 </r>
       <r>    0.9685    0.0000 </r>
       <r>    0.9686    0.0000 </r>
       <r>    0.9719    0.0000 </r>
       <r>    0.9866    0.0000 </r>
       <r>    1.0369    0.0000 </r>
       <r>    1.0435    0.0000 </r>
       <r>    1.0447    0.0000 </r>
       <r>    1.0928    0.0000 </r>
       <r>    1.0955    0.0000 </r>
       <r>    1.1366    0.0000 </r>
       <r>    1.1531    0.0000 </r>
       <r>    1.1565    0.0000 </r>
       <r>    1.2187    0.0000 </r>
       <r>    1.2499    0.0000 </r>
       <r>    1.2502    0.0000 </r>
       <r>    1.2515    0.0000 </r>
       <r>    1.2882    0.0000 </r>
       <r>    1.3232    0.0000 </r>
      </set>
      <set comment="kpoint 2">
       <r>  -30.6553    1.0000 </r>
       <r>  -30.6519    1.0000 </r>
       <r>  -30.6511    1.0000 </r>
       <r>  -29.9642    1.0000 </r>
       <r>  -29.9574    1.0000 </r>
       <r>  -29.9471    1.0000 </r>
       <r>  -26.2742    1.0000 </r>
       <r>  -26.2699    1.0000 </r>
       <r>  -26.2692    1.0000 </r>
       <r>  -25.6046    1.0000 </r>
       <r>  -25.5428    1.0000 </r>
       <r>  -25.5325    1.0000 </r>
       <r>  -25.5241    1.0000 </r>
       <r>  -25.4206    1.0000 </r>
       <r>  -24.0215    1.0000 </r>
       <r>  -24.0136    1.0000 </r>
       <r>  -23.8466    1.0000 </r>
       <r>  -23.8446    1.0000 </r>
       <r>  -23.6014    1.0000 </r>
       <r>  -23.5853    1.0000 </r>
       <r>  -23.5802    1.0000 </r>
       <r>  -23.4975    1.0000 </r>
       <r>  -23.4119    1.0000 </r>
       <r>  -23.4103    1.0000 </r>
       <r>  -22.5080    1.0000 </r>
       <r>  -22.4792    1.0000 </r>
       <r>  -21.8774    1.0000 </r>
[...]
       <r>   -24.0464     0.0038    28.0004 </r>
       <r>   -23.9291     0.0000    32.0000 </r>
       <r>   -23.8119    34.1138    36.0000 </r>
       <r>   -23.6946     0.0000    36.0000 </r>
       <r>   -23.5774    44.9291    41.2681 </r>
       <r>   -23.4601    17.0569    44.0000 </r>
       <r>   -23.3429    34.1139    48.0000 </r>
       <r>   -23.2256     0.0000    48.0000 </r>
       <r>   -23.1084     0.0000    48.0000 </r>
       <r>   -22.9911     0.0000    48.0000 </r>
       <r>   -22.8738     0.0000    48.0000 </r>
       <r>   -22.7566     0.0000    48.0000 </r>
       <r>   -22.6393     0.0000    48.0000 </r>
       <r>   -22.5221     0.3981    48.0467 </r>
       <r>   -22.4048    17.0569    52.0000 </r>
       <r>   -22.2876     0.0000    52.0000 </r>
       <r>   -22.1703     0.0000    52.0000 </r>
       <r>   -22.0531     0.0000    52.0000 </r>
       <r>   -21.9358     0.0000    52.0000 </r>
       <r>   -21.8186    48.9358    57.7379 </r>
       <r>   -21.7013     0.0000    58.0000 </r>
       <r>   -21.5840    34.1139    62.0000 </r>
       <r>   -21.4668    17.0547    63.9997 </r>
       <r>   -21.3495    15.9686    65.8724 </r>
       <r>   -21.2323     0.0000    68.0000 </r>
       <r>   -21.1150    33.4427    71.9213 </r>
       <r>   -20.9978     0.0000    72.0000 </r>
       <r>   -20.8805     0.0000    72.0000 </r>
       <r>   -20.7633     0.0000    72.0000 </r>
       <r>   -20.6460     0.0000    72.0000 </r>
       <r>   -20.5288     0.0000    72.0000 </r>
       <r>   -20.4115     0.0000    72.0000 </r>
       <r>   -20.2942     0.0320    72.0037 </r>
       <r>   -20.1770     0.0000    78.0000 </r>
       <r>   -20.0597     0.0000    78.0000 </r>
       <r>   -19.9425     0.0000    78.0000 </r>
       <r>   -19.8252     0.0000    78.0000 </r>
       <r>   -19.7080     0.0000    78.0000 </r>
       <r>   -19.5907     0.0000    78.0000 </r>
       <r>   -19.4735     0.0000    78.0000 </r>
       <r>   -19.3562     0.0000    78.0000 </r>
       <r>   -19.2390    51.1708    84.0000 </r>
       <r>   -19.1217    32.6924    90.0000 </r>
       <r>   -19.0044     0.0042    90.0005 </r>
       <r>   -18.8872    24.0790    95.4567 </r>
       <r>   -18.7699     0.0000    96.0000 </r>
       <r>   -18.6527     0.0000    96.0000 </r>
       <r>   -18.5354     0.0000    96.0000 </r>
       <r>   -18.4182     0.0000    96.0000 </r>
       <r>   -18.3009     0.0000    96.0000 </r>
       <r>   -18.1837     0.0000    96.0000 </r>
       <r>   -18.0664     0.0000    96.0000 </r>
       <r>   -17.9492     0.0000    96.0000 </r>
       <r>   -17.8319    25.8541    99.0315 </r>
       <r>   -17.7146    12.5085   101.4667 </r>
       <r>   -17.5974     0.0000   102.0000 </r>
       <r>   -17.4801    33.1616   105.8883 </r>
       <r>   -17.3629    17.0569   108.0000 </r>
       <r>   -17.2456     0.0000   108.0000 </r>
       <r>   -17.1284     0.0000   108.0000 </r>
       <r>   -17.0111     0.0000   108.0000 </r>
       <r>   -16.8939    33.5741   111.9367 </r>
       <r>   -16.7766    16.2821   113.9092 </r>
       <r>   -16.6594     0.0000   114.0000 </r>
       <r>   -16.5421    17.0993   118.2050 </r>
       <r>   -16.4248     6.2542   120.0000 </r>
       <r>   -16.3076     0.0000   120.0000 </r>
       <r>   -16.1903     0.0000   120.0000 </r>
       <r>   -16.0731     0.0000   120.0000 </r>
       <r>   -15.9558     0.0000   120.0000 </r>
       <r>   -15.8386    23.5937   122.7665 </r>
       <r>   -15.7213     3.2913   124.0193 </r>
       <r>   -15.6041     5.5612   125.6521 </r>
       <r>   -15.4868     0.0004   128.0000 </r>
       <r>   -15.3696    14.7436   130.0621 </r>
       <r>   -15.2523     0.0000   132.0000 </r>
       <r>   -15.1350    21.4212   134.5117 </r>
       <r>   -15.0178    10.0788   137.1818 </r>
       <r>   -14.9005     0.0012   140.0001 </r>
       <r>   -14.7833    11.3258   142.0613 </r>
       <r>   -14.6660     0.0000   146.0000 </r>
       <r>   -14.5488     0.0000   146.0000 </r>
       <r>   -14.4315     0.0098   146.0012 </r>
       <r>   -14.3143    17.0569   150.0000 </r>
       <r>   -14.1970    34.1131   153.9999 </r>
       <r>   -14.0798    17.0569   156.0000 </r>
       <r>   -13.9625     0.0000   156.0000 </r>
       <r>   -13.8453     0.0000   156.0000 </r>
       <r>   -13.7280     0.0000   156.0000 </r>
       <r>   -13.6107    40.9098   160.7969 </r>
       <r>   -13.4935    49.9818   167.8606 </r>
       <r>   -13.3762    12.8946   169.5119 </r>
       <r>   -13.2590    22.1740   174.0000 </r>
       <r>   -13.1417    17.0569   176.0000 </r>
       <r>   -13.0245    36.3847   180.2663 </r>
       <r>   -12.9072     0.0000   182.0000 </r>
       <r>   -12.7900    64.6106   189.5759 </r>
       <r>   -12.6727    22.8136   192.6750 </r>
       <r>   -12.5555     6.2620   194.7342 </r>
       <r>   -12.4382    34.1596   200.0054 </r>
       <r>   -12.3209     0.0000   206.0000 </r>
       <r>   -12.2037    49.1954   211.7684 </r>
       <r>   -12.0864    12.9533   213.5188 </r>
       <r>   -11.9692    15.1635   216.9113 </r>
       <r>   -11.8519    51.1708   224.0000 </r>
       <r>   -11.7347    43.6316   229.1160 </r>
       <r>   -11.6174    34.1077   233.9993 </r>
       <r>   -11.5002     0.0000   234.0000 </r>
       <r>   -11.3829    17.0569   236.0000 </r>
       <r>   -11.2657    37.5031   240.3974 </r>
       <r>   -11.1484    34.1139   246.0000 </r>
       <r>   -11.0311    50.2528   251.8924 </r>
       <r>   -10.9139    17.0569   254.0000 </r>
       <r>   -10.7966    15.2444   255.7875 </r>
       <r>   -10.6794    38.9931   260.5721 </r>
       <r>   -10.5621    21.4665   267.0837 </r>
       <r>   -10.4449     0.4622   268.0542 </r>
       <r>   -10.3276    10.3331   273.5449 </r>
       <r>   -10.2104    21.7079   276.3453 </r>
       <r>   -10.0931    11.9669   278.0032 </r>
       <r>    -9.9759    42.8769   283.7275 </r>
       <r>    -9.8586    34.1114   289.9997 </r>
       <r>    -9.7413    17.0598   292.0003 </r>
       <r>    -9.6241    37.2004   297.9952 </r>
       <r>    -9.5068     0.7386   298.0866 </r>
       <r>    -9.3896    35.7881   303.9963 </r>
       <r>    -9.2723    34.1137   308.0000 </r>
       <r>    -9.1551    17.1695   310.0132 </r>
       <r>    -9.0378     0.0000   316.0000 </r>
       <r>    -8.9206     0.0000   316.0000 </r>
       <r>    -8.8033     0.0000   316.0000 </r>
       <r>    -8.6861    17.0569   318.0000 </r>
       <r>    -8.5688    17.7277   320.0786 </r>
       <r>    -8.4515    17.0569   326.0000 </r>
       <r>    -8.3343    41.5315   330.8698 </r>
       <r>    -8.2170    47.6984   339.5928 </r>
       <r>    -8.0998     0.0000   340.0000 </r>
       <r>    -7.9825     0.0000   340.0000 </r>
       <r>    -7.8653    51.1708   346.0000 </r>
       <r>    -7.7480     0.0000   346.0000 </r>
       <r>    -7.6308     0.0000   346.0000 </r>
       <r>    -7.5135    51.1707   352.0000 </r>
       <r>    -7.3963     0.0000   352.0000 </r>
       <r>    -7.2790     3.1167   352.3655 </r>
       <r>    -7.1617     0.0000   358.0000 </r>
       <r>    -7.0445    49.4769   363.8014 </r>
       <r>    -6.9272    23.4489   366.7495 </r>
       <r>    -6.8100     0.0000   370.0000 </r>
       <r>    -6.6927     0.0000   370.0000 </r>
       <r>    -6.5755    48.4077   375.6760 </r>
       <r>    -6.4582    50.1733   381.8830 </r>
       <r>    -6.3410     0.0000   382.0000 </r>
       <r>    -6.2237    50.6368   387.9374 </r>
       <r>    -6.1065     0.0000   388.0000 </r>
       <r>    -5.9892    85.2674   397.9980 </r>
       <r>    -5.8719     0.7949   398.0932 </r>
       <r>    -5.7547    34.1106   403.9996 </r>
       <r>    -5.6374     0.0001   404.0000 </r>
       <r>    -5.5202    34.1249   410.0013 </r>
       <r>    -5.4029     9.6656   416.0000 </r>
       <r>    -5.2857    35.4585   420.1577 </r>
       <r>    -5.1684     0.0000   426.0000 </r>
       <r>    -5.0512     0.0000   426.0000 </r>
       <r>    -4.9339     0.0000   426.0000 </r>
       <r>    -4.8167     0.0000   426.0000 </r>
       <r>    -4.6994     0.0000   426.0000 </r>
       <r>    -4.5822     0.0000   426.0000 </r>
       <r>    -4.4649     0.0000   426.0000 </r>
       <r>    -4.3476     0.0000   426.0000 </r>
       <r>    -4.2304     0.0000   426.0000 </r>
       <r>    -4.1131     0.0000   426.0000 </r>
       <r>    -3.9959     0.0000   426.0000 </r>
       <r>    -3.8786     0.0000   426.0000 </r>
       <r>    -3.7614     0.0000   426.0000 </r>
       <r>    -3.6441     0.0000   426.0000 </r>
       <r>    -3.5269     0.0000   426.0000 </r>
       <r>    -3.4096     0.0000   426.0000 </r>
       <r>    -3.2924     0.0000   426.0000 </r>
       <r>    -3.1751    34.1139   432.0000 </r>
       <r>    -3.0578     0.0000   432.0000 </r>
       <r>    -2.9406     0.0000   432.0000 </r>
       <r>    -2.8233     0.0000   432.0000 </r>
       <r>    -2.7061    51.1708   438.0000 </r>
       <r>    -2.5888     0.0000   438.0000 </r>
       <r>    -2.4716     0.0000   438.0000 </r>
       <r>    -2.3543     0.0000   438.0000 </r>
       <r>    -2.2371     0.0000   438.0000 </r>
       <r>    -2.1198     0.0000   438.0000 </r>
       <r>    -2.0026     0.0000   438.0000 </r>
       <r>    -1.8853    51.1708   444.0000 </r>
       <r>    -1.7680     0.0000   444.0000 </r>
       <r>    -1.6508     0.0000   444.0000 </r>
       <r>    -1.5335     0.0000   444.0000 </r>
       <r>    -1.4163     0.0000   444.0000 </r>
       <r>    -1.2990     0.0000   444.0000 </r>
       <r>    -1.1818    51.1686   449.9997 </r>
       <r>    -1.0645    37.5206   454.3995 </r>
       <r>    -0.9473    21.4528   458.5154 </r>
       <r>    -0.8300     0.0000   460.0000 </r>
       <r>    -0.7128    34.1143   464.0001 </r>
       <r>    -0.5955     8.6430   466.4801 </r>
       <r>    -0.4782    43.7488   472.7964 </r>
       <r>    -0.3610     8.5404   479.0014 </r>
       <r>    -0.2437     0.0000   482.0000 </r>
       <r>    -0.1265     0.0321   482.0038 </r>
       <r>    -0.0092     6.3643   484.4129 </r>
       <r>     0.1080    33.8914   489.4739 </r>
       <r>     0.2253    30.9100   495.9910 </r>
       <r>     0.3425    23.1205   500.0110 </r>
       <r>     0.4598    30.2977   505.9859 </r>
       <r>     0.5770    32.6184   511.8247 </r>
       <r>     0.6943    36.6813   519.5010 </r>
       <r>     0.8116    52.9969   529.4141 </r>
       <r>     0.9288    44.0522   539.1653 </r>
       <r>     1.0461    65.4157   549.7369 </r>
       <r>     1.1633    68.9188   562.1810 </r>
       <r>     1.2806    67.5707   573.5896 </r>
       <r>     1.3978     1.7057   576.0000 </r>
       <r>     1.5151     0.0000   576.0000 </r>
       <r>     1.6323     0.0000   576.0000 </r>
       <r>     1.7496     0.0000   576.0000 </r>
       <r>     1.8668     0.0000   576.0000 </r>
       <r>     1.9841     0.0000   576.0000 </r>
       <r>     2.1014     0.0000   576.0000 </r>
       <r>     2.2186     0.0000   576.0000 </r>
       <r>     2.3359     0.0000   576.0000 </r>
       <r>     2.4531     0.0000   576.0000 </r>
       <r>     2.5704     0.0000   576.0000 </r>
       <r>     2.6876     0.0000   576.0000 </r>
       <r>     2.8049     0.0000   576.0000 </r>
       <r>     2.9221     0.0000   576.0000 </r>
      </set>
     </set>
    </array>
   </total>
  </dos>
 </calculation>
 <structure name="finalpos" >
  <crystal>
   <varray name="basis" >
    <v>      29.18816276       0.02749874       0.00000000 </v>
    <v>     -14.57038865      25.23503890       0.00000000 </v>
    <v>       0.00000000       0.00000000      20.00000000 </v>
   </varray>
   <i name="volume">  14739.30179988 </i>
   <varray name="rec_basis" >
    <v>       0.03424184       0.01977080       0.00000000 </v>
    <v>      -0.00003731       0.03960590       0.00000000 </v>
    <v>       0.00000000       0.00000000       0.05000000 </v>
   </varray>
  </crystal>
  <varray name="positions" >
   <v>       0.30199042       0.68915056       0.52794913 </v>
   <v>       0.31081025       0.61151295       0.52806276 </v>
   <v>       0.38828035       0.69794794       0.52794071 </v>
   <v>       0.22867710       0.60436342       0.53066956 </v>
   <v>       0.39556485       0.62289958       0.53054296 </v>
   <v>       0.37676494       0.77142209       0.53073439 </v>
   <v>       0.69945732       0.31001721       0.47497500 </v>
   <v>       0.69132902       0.38810278       0.47487203 </v>
   <v>       0.61348078       0.30200042       0.47704144 </v>
   <v>       0.77314655       0.39437467       0.47131772 </v>
   <v>       0.60699575       0.37757952       0.47529753 </v>
   <v>       0.62381656       0.22802603       0.47430478 </v>
   <v>       0.57486698       0.12220584       0.34826129 </v>
   <v>       0.43120237       0.93875590       0.40703193 </v>
   <v>       0.88008600       0.45061895       0.34577163 </v>
   <v>       0.06205699       0.48958054       0.40873025 </v>
   <v>       0.54850952       0.42500664       0.34881008 </v>
   <v>       0.50923402       0.56958941       0.40770924 </v>
   <v>       0.53119039       0.14842025       0.57704777 </v>
   <v>       0.51617742       0.89641179       0.63569491 </v>
   <v>       0.85179338       0.38278510       0.57576984 </v>
   <v>       0.10364377       0.62113699       0.63302840 </v>
   <v>       0.61798980       0.46866569       0.57770998 </v>
   <v>       0.37972418       0.48166156       0.63391750 </v>
   <v>       0.21819116       0.56623637       0.54144880 </v>
   <v>       0.43362979       0.65058969       0.54109805 </v>
   <v>       0.34901211       0.78178461       0.54115399 </v>
   <v>       0.78459511       0.43218961       0.45742762 </v>
   <v>       0.56899434       0.35111005       0.46260478 </v>
   <v>       0.64991474       0.21633760       0.46011815 </v>
   <v>       0.40219231       0.84394927       0.45376079 </v>
   <v>       0.53114807       0.02352076       0.38494608 </v>
   <v>       0.39964768       0.90868284       0.38402544 </v>
   <v>       0.43889514       0.97597746       0.39683412 </v>
   <v>       0.56775235       0.20172545       0.39532454 </v>
   <v>       0.54402951       0.20632342       0.47459409 </v>
   <v>       0.15648976       0.55622270       0.45475250 </v>
   <v>       0.97809732       0.50577073       0.38377277 </v>
   <v>       0.09218967       0.48825781       0.38566278 </v>
   <v>       0.02487343       0.46047589       0.39798455 </v>
   <v>       0.80012154       0.36474653       0.39282688 </v>
   <v>       0.79514902       0.33644980       0.47226187 </v>
   <v>       0.44310683       0.59813605       0.45424980 </v>
   <v>       0.49370817       0.46892284       0.38524386 </v>
   <v>       0.51072444       0.60125189       0.38485562 </v>
   <v>       0.53875899       0.56195077       0.39756779 </v>
   <v>       0.63559413       0.43315307       0.39561433 </v>
   <v>       0.66412563       0.45777248       0.47459542 </v>
   <v>       0.49553808       0.04542431       0.58810413 </v>
   <v>       0.53805212       0.98844993       0.59183183 </v>
   <v>       0.52321756       0.13314609       0.62389103 </v>
   <v>       0.55954608       0.18722135       0.57522361 </v>
   <v>       0.45503980       0.79010606       0.54102374 </v>
   <v>       0.42860975       0.80125703       0.61339295 </v>
   <v>       0.95447288       0.45018934       0.58793100 </v>
   <v>       0.01192379       0.55046506       0.58962175 </v>
   <v>       0.86657560       0.39047068       0.62285510 </v>
   <v>       0.81303153       0.37226048       0.57302986 </v>
   <v>       0.21008109       0.66425391       0.53959795 </v>
   <v>       0.19894647       0.62738690       0.61261228 </v>
   <v>       0.55067702       0.50440584       0.58855440 </v>
   <v>       0.45055779       0.46073407       0.59075885 </v>
   <v>       0.61055519       0.47652784       0.62454461 </v>
   <v>       0.62817731       0.44008698       0.57577655 </v>
   <v>       0.33592602       0.54448599       0.54034828 </v>
   <v>       0.37315813       0.57064938       0.61295605 </v>
   <v>       0.61808335       0.16417118       0.34707806 </v>
   <v>       0.55156234       0.09536063       0.29846922 </v>
   <v>       0.83831707       0.45220520       0.34334949 </v>
   <v>       0.90734032       0.45362476       0.29666290 </v>
   <v>       0.54779648       0.38197178       0.34797620 </v>
   <v>       0.54413185       0.44769833       0.29888232 </v>
   <v>       0.53766303       0.93281552       0.67752364 </v>
   <v>       0.51539417       0.85329145       0.64023467 </v>
   <v>       0.06669613       0.60770066       0.67363851 </v>
   <v>       0.14719094       0.66283929       0.63792008 </v>
   <v>       0.39339212       0.45829670       0.67456143 </v>
   <v>       0.33802601       0.48348901       0.63897073 </v>
   <v>       0.35539238       0.71756872       0.52830037 </v>
   <v>       0.28242949       0.63662981       0.52832551 </v>
   <v>       0.36324475       0.64443011       0.52829021 </v>
   <v>       0.64604258       0.28200689       0.47578932 </v>
   <v>       0.71933783       0.36260228       0.47407017 </v>
   <v>       0.63885457       0.35548690       0.47601409 </v>
   <v>       0.48941032       0.97069219       0.50406769 </v>
   <v>       0.45092372       0.92879582       0.46378146 </v>
   <v>       0.43283232       0.87598442       0.48353977 </v>
   <v>       0.50939006       0.02725247       0.48841209 </v>
   <v>       0.55139781       0.13725527       0.46269641 </v>
   <v>       0.55031772       0.10206641       0.41430792 </v>
   <v>       0.52923677       0.04795602       0.42479132 </v>
   <v>       0.56997696       0.19466823       0.44899150 </v>
   <v>       0.02986508       0.51783294       0.50369374 </v>
   <v>       0.07178914       0.52038700       0.46430274 </v>
   <v>       0.12444887       0.55536411       0.48392028 </v>
   <v>       0.97349827       0.48119396       0.48780505 </v>
   <v>       0.86394183       0.41298745       0.46081587 </v>
   <v>       0.89949936       0.44664926       0.41250101 </v>
   <v>       0.95338021       0.47975715       0.42364049 </v>
   <v>       0.80677015       0.37402784       0.44651963 </v>
   <v>       0.48236260       0.51055596       0.50407877 </v>
   <v>       0.47919418       0.54935612       0.46405916 </v>
   <v>       0.44430970       0.56721421       0.48372522 </v>
   <v>       0.51911456       0.49079506       0.48865905 </v>
   <v>       0.58730665       0.44911044       0.46308740 </v>
   <v>       0.55315713       0.44996611       0.41465178 </v>
   <v>       0.52007989       0.47095893       0.42506809 </v>
   <v>       0.62659713       0.43116753       0.44933429 </v>
   <v>       0.45203701       0.86253958       0.53944320 </v>
   <v>       0.49121359       0.90486633       0.57762832 </v>
   <v>       0.50816978       0.95739637       0.56042538 </v>
   <v>       0.51104513       0.06153148       0.53860005 </v>
   <v>       0.53187562       0.11602196       0.52710082 </v>
   <v>       0.42926176       0.80507422       0.55854959 </v>
   <v>       0.13775276       0.58893943       0.53886769 </v>
   <v>       0.09541013       0.58666335       0.57613556 </v>
   <v>       0.04300015       0.55092609       0.55900277 </v>
   <v>       0.93885245       0.44911515       0.53795951 </v>
   <v>       0.88457057       0.41535141       0.52580824 </v>
   <v>       0.19512202       0.62366141       0.55781168 </v>
   <v>       0.41120436       0.54741041       0.53911622 </v>
   <v>       0.41387560       0.50765837       0.57677114 </v>
   <v>       0.44969280       0.49101459       0.55975152 </v>
   <v>       0.55153400       0.48907882       0.53900633 </v>
   <v>       0.58524211       0.46831765       0.52759199 </v>
   <v>       0.37654915       0.57020254       0.55813051 </v>
  </varray>
 </structure>
</modeling>
