<?xml version="1.0" encoding="ISO-8859-1"?>
<modeling>
 <generator>
  <i name="program" type="string">vasp </i>
  <i name="version" type="string">5.4.4.18Apr17-6-g9f103f2a35  </i>
  <i name="subversion" type="string">(build Jun 07 2020 16:50:00) complex            parallel </i>
  <i name="platform" type="string">LinuxIFC </i>
  <i name="date" type="string">2023 03 07 </i>
  <i name="time" type="string">04:31:09 </i>
 </generator>
 <incar>
  <i type="string" name="SYSTEM">Simulation for cell shape cell volume r</i>
  <i type="int" name="ISTART">     1</i>
  <i type="string" name="PREC">high</i>
  <i type="string" name="ALGO">48</i>
  <i type="int" name="ICHARG">    11</i>
  <i type="int" name="NELM">   200</i>
  <i type="int" name="IBRION">    -1</i>
  <i name="EDIFF">      0.00001000</i>
  <i name="EDIFFG">     -0.01000000</i>
  <i type="int" name="NSW">     0</i>
  <i type="int" name="ISIF">     2</i>
  <i name="ENCUT">    500.00000000</i>
  <i name="POTIM">      0.30000000</i>
  <i type="string" name="LREAL">A</i>
  <i type="int" name="ISMEAR">     0</i>
  <i name="SIGMA">      0.01000000</i>
  <i type="int" name="NWRITE">     0</i>
  <i type="logical" name="LWAVE"> F  </i>
  <i type="logical" name="LCHARG"> F  </i>
  <v type="int" name="KPOINT_BSE">    -1     0     0     0</v>
  <i type="int" name="NELM">   200</i>
  <i type="string" name="GGA">PE</i>
 </incar>
 <structure name="primitive_cell" >
  <crystal>
   <varray name="basis" >
    <v>      29.67932897       0.01792660       0.00000000 </v>
    <v>     -14.82416650      25.69582280       0.00000000 </v>
    <v>       0.00000000       0.00000000      20.00000000 </v>
   </varray>
   <i name="volume">  15258.01049727 </i>
   <varray name="rec_basis" >
    <v>       0.03368175       0.01943132       0.00000000 </v>
    <v>      -0.00002350       0.03890328       0.00000000 </v>
    <v>       0.00000000       0.00000000       0.05000000 </v>
   </varray>
  </crystal>
  <varray name="positions" >
   <v>       0.35363785      -0.27929670       0.49101513 </v>
   <v>       0.37275123      -0.22559335       0.48759193 </v>
   <v>       0.38738399      -0.29952977       0.49062324 </v>
   <v>       0.29949883      -0.31301558       0.49059474 </v>
   <v>       0.27359356      -0.29693346       0.48786921 </v>
   <v>       0.42932769      -0.27362863       0.48792083 </v>
   <v>       0.40530410      -0.19522516      -0.46853050 </v>
   <v>       0.27932241      -0.36697485       0.49096132 </v>
   <v>       0.36699513      -0.35370145       0.49098558 </v>
   <v>       0.41628565      -0.21055696      -0.42486321 </v>
   <v>       0.31307213      -0.38741882       0.49050082 </v>
   <v>       0.42934904      -0.13859397      -0.47291735 </v>
   <v>       0.40159960      -0.37282266       0.48766840 </v>
   <v>       0.22565260      -0.40155398       0.48760174 </v>
   <v>       0.40657698      -0.13808319       0.42514513 </v>
   <v>       0.29702641      -0.42938294       0.48768095 </v>
   <v>       0.21058183      -0.37257107      -0.42527031 </v>
   <v>       0.42717147      -0.11387897       0.46817944 </v>
   <v>       0.19527492      -0.39909012      -0.46873762 </v>
   <v>       0.39912898      -0.40566442      -0.46863853 </v>
   <v>       0.37255292      -0.41685089      -0.42524376 </v>
   <v>       0.45441146      -0.10800476      -0.41690061 </v>
   <v>       0.45561680      -0.12565010      -0.36958997 </v>
   <v>       0.45113375      -0.05999405       0.46379815 </v>
   <v>       0.13867547      -0.43166831      -0.47311325 </v>
   <v>       0.43173907      -0.42973079      -0.47283921 </v>
   <v>       0.45538183      -0.40660754       0.42539782 </v>
   <v>       0.13835808      -0.45517149       0.42510972 </v>
   <v>       0.47617999      -0.05431499      -0.42061365 </v>
   <v>       0.41689575      -0.06116183       0.36888873 </v>
   <v>       0.11409129      -0.45871909       0.46804243 </v>
   <v>       0.47787564      -0.02818954      -0.48030955 </v>
   <v>       0.12558370      -0.41803871      -0.36993515 </v>
   <v>       0.45887118      -0.42732343       0.46840236 </v>
   <v>       0.44960349      -0.03359133       0.40007105 </v>
   <v>       0.10802530      -0.43708988      -0.41717413 </v>
   <v>       0.41801651      -0.45639144      -0.36965023 </v>
   <v>       0.48549190      -0.02182191       0.37109613 </v>
   <v>       0.43714138      -0.45492200      -0.41681869 </v>
   <v>       0.49373111      -0.02652338      -0.35606217 </v>
   <v>      -0.47830651      -0.03668786      -0.32027958 </v>
   <v>       0.40833307       0.00278687       0.44187105 </v>
   <v>       0.06025697      -0.48870439       0.46361501 </v>
   <v>       0.44556325       0.01476432       0.41614454 </v>
   <v>      -0.49304640       0.02859717      -0.48933571 </v>
   <v>       0.48889585      -0.45120125       0.46412840 </v>
   <v>       0.05438699      -0.46916023      -0.42088086 </v>
   <v>       0.47764606       0.00345513      -0.34109430 </v>
   <v>      -0.47783024      -0.41675419       0.36937742 </v>
   <v>       0.46929749      -0.47645977      -0.42036649 </v>
   <v>       0.06157255       0.47806657       0.36887322 </v>
   <v>       0.02840090      -0.49369945      -0.48057395 </v>
   <v>       0.49045974       0.05065043       0.46025110 </v>
   <v>       0.44553131       0.03498977       0.37012118 </v>
   <v>      -0.43300506       0.04504772      -0.41554534 </v>
   <v>       0.03392669       0.48317513       0.39998491 </v>
   <v>      -0.48288789      -0.44944906       0.40058880 </v>
   <v>       0.49389863      -0.47799067      -0.47995946 </v>
   <v>      -0.44820181       0.06150680      -0.45181883 </v>
   <v>       0.02195984      -0.49289625       0.37085529 </v>
   <v>       0.03650335      -0.44136833      -0.32061027 </v>
   <v>       0.02646149      -0.47945715      -0.35640115 </v>
   <v>       0.49329761      -0.48536207       0.37151365 </v>
   <v>       0.47968027      -0.49393130      -0.35580611 </v>
   <v>       0.44164748       0.47781811      -0.32012921 </v>
   <v>      -0.40555507      -0.40794957       0.44305904 </v>
   <v>      -0.48329317       0.10449874       0.45199680 </v>
   <v>      -0.43047008      -0.44515609       0.41708994 </v>
   <v>      -0.02835044       0.47850574      -0.48963513 </v>
   <v>      -0.00348191       0.47450308      -0.34150362 </v>
   <v>      -0.00205724       0.40573959       0.44226044 </v>
   <v>      -0.01424066       0.43076715       0.41628851 </v>
   <v>      -0.47424993      -0.47752066      -0.34075084 </v>
   <v>      -0.42216021       0.11487527      -0.46090387 </v>
   <v>      -0.47819865       0.49308152      -0.48880950 </v>
   <v>      -0.04497776      -0.47760492      -0.41643932 </v>
   <v>      -0.49654692       0.12155190       0.41368977 </v>
   <v>      -0.40991395      -0.44487980       0.37125181 </v>
   <v>      -0.05025493       0.43977752       0.46019852 </v>
   <v>      -0.44004914       0.13730300       0.49152007 </v>
   <v>      -0.43945000      -0.49013504       0.46107525 </v>
   <v>      -0.06135194       0.49053289      -0.45239323 </v>
   <v>      -0.03440890       0.41031144       0.37035667 </v>
   <v>      -0.38776608       0.14029705      -0.43149934 </v>
   <v>       0.47808376       0.43273577      -0.41540863 </v>
   <v>      -0.49011092       0.44814387      -0.45142699 </v>
   <v>      -0.10407386       0.41202425       0.45201614 </v>
   <v>      -0.11469395       0.46303503      -0.46138826 </v>
   <v>      -0.41166089       0.48377823       0.45295580 </v>
   <v>      -0.41484810       0.19363302       0.48295632 </v>
   <v>      -0.46257782       0.42226821      -0.46037081 </v>
   <v>      -0.43309846       0.20773682       0.44651648 </v>
   <v>      -0.38121836       0.49722570       0.41486117 </v>
   <v>      -0.12103748       0.38156800       0.41392654 </v>
   <v>      -0.13697198       0.42249001       0.49136947 </v>
   <v>      -0.14019307       0.47206464      -0.43219238 </v>
   <v>      -0.42209672       0.44042836       0.49232100 </v>
   <v>      -0.37399860       0.22530593      -0.48392170 </v>
   <v>      -0.47154187       0.38778734      -0.43110510 </v>
   <v>      -0.19326309       0.39119577       0.48288436 </v>
   <v>      -0.35449361       0.27897418      -0.48835123 </v>
   <v>      -0.42917371       0.27586728      -0.48337482 </v>
   <v>      -0.39082983       0.41536011       0.48370662 </v>
   <v>      -0.20724118       0.35891075       0.44636144 </v>
   <v>      -0.35845906       0.43378457       0.44735404 </v>
   <v>      -0.22502120       0.40020911      -0.48386797 </v>
   <v>      -0.38713547       0.30061870      -0.48766048 </v>
   <v>      -0.27546574       0.29450844      -0.48389165 </v>
   <v>      -0.30023241       0.31183246      -0.48794171 </v>
   <v>      -0.39994682       0.37440874      -0.48340036 </v>
   <v>      -0.27865153       0.36609095      -0.48832013 </v>
   <v>      -0.36576714       0.35491178      -0.48804609 </v>
   <v>      -0.29424941       0.42958642      -0.48333290 </v>
   <v>      -0.31153718       0.38752617      -0.48761996 </v>
  </varray>
 </structure>
 <varray name="primitive_index" >
  <v type="int" >        1 </v>
  <v type="int" >      106 </v>
  <v type="int" >        6 </v>
  <v type="int" >        2 </v>
  <v type="int" >       63 </v>
  <v type="int" >       62 </v>
  <v type="int" >       20 </v>
  <v type="int" >        3 </v>
  <v type="int" >        5 </v>
  <v type="int" >       70 </v>
  <v type="int" >        4 </v>
  <v type="int" >       13 </v>
  <v type="int" >      108 </v>
  <v type="int" >      107 </v>
  <v type="int" >       79 </v>
  <v type="int" >       61 </v>
  <v type="int" >       78 </v>
  <v type="int" >       38 </v>
  <v type="int" >       36 </v>
  <v type="int" >       28 </v>
  <v type="int" >       74 </v>
  <v type="int" >       14 </v>
  <v type="int" >       69 </v>
  <v type="int" >       37 </v>
  <v type="int" >       29 </v>
  <v type="int" >       21 </v>
  <v type="int" >       86 </v>
  <v type="int" >       93 </v>
  <v type="int" >       15 </v>
  <v type="int" >       83 </v>
  <v type="int" >       54 </v>
  <v type="int" >       16 </v>
  <v type="int" >       77 </v>
  <v type="int" >       46 </v>
  <v type="int" >       43 </v>
  <v type="int" >       30 </v>
  <v type="int" >       73 </v>
  <v type="int" >       84 </v>
  <v type="int" >       22 </v>
  <v type="int" >      112 </v>
  <v type="int" >      100 </v>
  <v type="int" >       81 </v>
  <v type="int" >       53 </v>
  <v type="int" >       42 </v>
  <v type="int" >       17 </v>
  <v type="int" >       45 </v>
  <v type="int" >       31 </v>
  <v type="int" >      101 </v>
  <v type="int" >       90 </v>
  <v type="int" >       23 </v>
  <v type="int" >       97 </v>
  <v type="int" >       32 </v>
  <v type="int" >       41 </v>
  <v type="int" >       82 </v>
  <v type="int" >       67 </v>
  <v type="int" >       59 </v>
  <v type="int" >       51 </v>
  <v type="int" >       24 </v>
  <v type="int" >       18 </v>
  <v type="int" >       98 </v>
  <v type="int" >      104 </v>
  <v type="int" >      114 </v>
  <v type="int" >       91 </v>
  <v type="int" >      113 </v>
  <v type="int" >      102 </v>
  <v type="int" >       88 </v>
  <v type="int" >       40 </v>
  <v type="int" >       50 </v>
  <v type="int" >       33 </v>
  <v type="int" >      105 </v>
  <v type="int" >       95 </v>
  <v type="int" >       58 </v>
  <v type="int" >      103 </v>
  <v type="int" >       19 </v>
  <v type="int" >       25 </v>
  <v type="int" >       75 </v>
  <v type="int" >       80 </v>
  <v type="int" >       89 </v>
  <v type="int" >       57 </v>
  <v type="int" >       39 </v>
  <v type="int" >       49 </v>
  <v type="int" >       34 </v>
  <v type="int" >       96 </v>
  <v type="int" >       68 </v>
  <v type="int" >       71 </v>
  <v type="int" >       26 </v>
  <v type="int" >       56 </v>
  <v type="int" >       35 </v>
  <v type="int" >       48 </v>
  <v type="int" >       44 </v>
  <v type="int" >       27 </v>
  <v type="int" >       85 </v>
  <v type="int" >       87 </v>
  <v type="int" >       94 </v>
  <v type="int" >       55 </v>
  <v type="int" >       76 </v>
  <v type="int" >       47 </v>
  <v type="int" >      109 </v>
  <v type="int" >       72 </v>
  <v type="int" >       60 </v>
  <v type="int" >        7 </v>
  <v type="int" >       65 </v>
  <v type="int" >       52 </v>
  <v type="int" >       99 </v>
  <v type="int" >       92 </v>
  <v type="int" >      110 </v>
  <v type="int" >       12 </v>
  <v type="int" >       66 </v>
  <v type="int" >        8 </v>
  <v type="int" >      111 </v>
  <v type="int" >        9 </v>
  <v type="int" >       11 </v>
  <v type="int" >       64 </v>
  <v type="int" >       10 </v>
 </varray>
 <kpoints>
  <generation param="listgenerated">
   <i name="divisions" type="int">      20 </i>
   <v>       0.00000000       0.00000000       0.00000000 </v>
   <v>       0.50000000       0.00000000       0.00000000 </v>
   <v>       0.33333333       0.33333333       0.00000000 </v>
   <v>       0.00000000       0.00000000       0.00000000 </v>
  </generation>
  <varray name="kpointlist" >
   <v>       0.00000000       0.00000000       0.00000000 </v>
   <v>       0.02631579       0.00000000       0.00000000 </v>
   <v>       0.05263158       0.00000000       0.00000000 </v>
   <v>       0.07894737       0.00000000       0.00000000 </v>
   <v>       0.10526316       0.00000000       0.00000000 </v>
   <v>       0.13157895       0.00000000       0.00000000 </v>
   <v>       0.15789474       0.00000000       0.00000000 </v>
   <v>       0.18421053       0.00000000       0.00000000 </v>
   <v>       0.21052632       0.00000000       0.00000000 </v>
   <v>       0.23684211       0.00000000       0.00000000 </v>
   <v>       0.26315789       0.00000000       0.00000000 </v>
   <v>       0.28947368       0.00000000       0.00000000 </v>
   <v>       0.31578947       0.00000000       0.00000000 </v>
   <v>       0.34210526       0.00000000       0.00000000 </v>
   <v>       0.36842105       0.00000000       0.00000000 </v>
   <v>       0.39473684       0.00000000       0.00000000 </v>
   <v>       0.42105263       0.00000000       0.00000000 </v>
   <v>       0.44736842       0.00000000       0.00000000 </v>
   <v>       0.47368421       0.00000000       0.00000000 </v>
   <v>       0.50000000       0.00000000       0.00000000 </v>
   <v>       0.50000000       0.00000000       0.00000000 </v>
   <v>       0.49122807       0.01754386       0.00000000 </v>
   <v>       0.48245614       0.03508772       0.00000000 </v>
   <v>       0.47368421       0.05263158       0.00000000 </v>
   <v>       0.46491228       0.07017544       0.00000000 </v>
   <v>       0.45614035       0.08771930       0.00000000 </v>
   <v>       0.44736842       0.10526316       0.00000000 </v>
   <v>       0.43859649       0.12280702       0.00000000 </v>
   <v>       0.42982456       0.14035088       0.00000000 </v>
   <v>       0.42105263       0.15789474       0.00000000 </v>
   <v>       0.41228070       0.17543860       0.00000000 </v>
   <v>       0.40350877       0.19298246       0.00000000 </v>
   <v>       0.39473684       0.21052632       0.00000000 </v>
   <v>       0.38596491       0.22807018       0.00000000 </v>
   <v>       0.37719298       0.24561404       0.00000000 </v>
   <v>       0.36842105       0.26315789       0.00000000 </v>
   <v>       0.35964912       0.28070175       0.00000000 </v>
   <v>       0.35087719       0.29824561       0.00000000 </v>
   <v>       0.34210526       0.31578947       0.00000000 </v>
   <v>       0.33333333       0.33333333       0.00000000 </v>
   <v>       0.33333333       0.33333333       0.00000000 </v>
   <v>       0.31578947       0.31578947       0.00000000 </v>
   <v>       0.29824561       0.29824561       0.00000000 </v>
   <v>       0.28070175       0.28070175       0.00000000 </v>
   <v>       0.26315789       0.26315789       0.00000000 </v>
   <v>       0.24561404       0.24561404       0.00000000 </v>
   <v>       0.22807018       0.22807018       0.00000000 </v>
   <v>       0.21052632       0.21052632       0.00000000 </v>
   <v>       0.19298246       0.19298246       0.00000000 </v>
   <v>       0.17543860       0.17543860       0.00000000 </v>
   <v>       0.15789474       0.15789474       0.00000000 </v>
   <v>       0.14035088       0.14035088       0.00000000 </v>
   <v>       0.12280702       0.12280702       0.00000000 </v>
   <v>       0.10526316       0.10526316       0.00000000 </v>
   <v>       0.08771930       0.08771930       0.00000000 </v>
   <v>       0.07017544       0.07017544       0.00000000 </v>
   <v>       0.05263158       0.05263158       0.00000000 </v>
   <v>       0.03508772       0.03508772       0.00000000 </v>
   <v>       0.01754386       0.01754386       0.00000000 </v>
   <v>       0.00000000       0.00000000       0.00000000 </v>
  </varray>
  <varray name="weights" >
   <v>       0.01666667 </v>
   <v>       0.01666667 </v>
   <v>       0.01666667 </v>
   <v>       0.01666667 </v>
   <v>       0.01666667 </v>
   <v>       0.01666667 </v>
   <v>       0.01666667 </v>
   <v>       0.01666667 </v>
   <v>       0.01666667 </v>
   <v>       0.01666667 </v>
   <v>       0.01666667 </v>
   <v>       0.01666667 </v>
   <v>       0.01666667 </v>
   <v>       0.01666667 </v>
   <v>       0.01666667 </v>
   <v>       0.01666667 </v>
   <v>       0.01666667 </v>
   <v>       0.01666667 </v>
   <v>       0.01666667 </v>
   <v>       0.01666667 </v>
   <v>       0.01666667 </v>
   <v>       0.01666667 </v>
   <v>       0.01666667 </v>
   <v>       0.01666667 </v>
   <v>       0.01666667 </v>
   <v>       0.01666667 </v>
   <v>       0.01666667 </v>
   <v>       0.01666667 </v>
   <v>       0.01666667 </v>
   <v>       0.01666667 </v>
   <v>       0.01666667 </v>
   <v>       0.01666667 </v>
   <v>       0.01666667 </v>
   <v>       0.01666667 </v>
   <v>       0.01666667 </v>
   <v>       0.01666667 </v>
   <v>       0.01666667 </v>
   <v>       0.01666667 </v>
   <v>       0.01666667 </v>
   <v>       0.01666667 </v>
   <v>       0.01666667 </v>
   <v>       0.01666667 </v>
   <v>       0.01666667 </v>
   <v>       0.01666667 </v>
   <v>       0.01666667 </v>
   <v>       0.01666667 </v>
   <v>       0.01666667 </v>
   <v>       0.01666667 </v>
   <v>       0.01666667 </v>
   <v>       0.01666667 </v>
   <v>       0.01666667 </v>
   <v>       0.01666667 </v>
   <v>       0.01666667 </v>
   <v>       0.01666667 </v>
   <v>       0.01666667 </v>
   <v>       0.01666667 </v>
   <v>       0.01666667 </v>
   <v>       0.01666667 </v>
   <v>       0.01666667 </v>
   <v>       0.01666667 </v>
  </varray>
 </kpoints>
 <parameters>
  <separator name="general" >
   <i type="string" name="SYSTEM">Simulation for cell shape cell volume r</i>
   <i type="logical" name="LCOMPAT"> F  </i>
  </separator>
  <separator name="electronic" >
   <i type="string" name="PREC">high</i>
   <i name="ENMAX">    500.00000000</i>
   <i name="ENAUG">    644.87300000</i>
   <i name="EDIFF">      0.00001000</i>
   <i type="int" name="IALGO">    38</i>
   <i type="int" name="IWAVPR">    10</i>
   <i type="int" name="NBANDS">   240</i>
   <i name="NELECT">    360.00000000</i>
   <i type="int" name="TURBO">     0</i>
   <i type="int" name="IRESTART">     0</i>
   <i type="int" name="NREBOOT">     0</i>
   <i type="int" name="NMIN">     0</i>
   <i name="EREF">      0.00000000</i>
   <separator name="electronic smearing" >
    <i type="int" name="ISMEAR">     0</i>
    <i name="SIGMA">      0.01000000</i>
    <i name="KSPACING">      0.50000000</i>
    <i type="logical" name="KGAMMA"> T  </i>
   </separator>
   <separator name="electronic projectors" >
    <i type="logical" name="LREAL"> T  </i>
    <v name="ROPT">     -0.00040000     -0.00040000     -0.00040000     -0.00040000</v>
    <i type="int" name="LMAXPAW">  -100</i>
    <i type="int" name="LMAXMIX">     2</i>
    <i type="logical" name="NLSPLINE"> F  </i>
   </separator>
   <separator name="electronic startup" >
    <i type="int" name="ISTART">     1</i>
    <i type="int" name="ICHARG">    11</i>
    <i type="int" name="INIWAV">     1</i>
   </separator>
   <separator name="electronic spin" >
    <i type="int" name="ISPIN">     1</i>
    <i type="logical" name="LNONCOLLINEAR"> F  </i>
    <v name="MAGMOM">      1.00000000      1.00000000      1.00000000      1.00000000      1.00000000      1.00000000      1.00000000      1.00000000      1.00000000      1.00000000      1.00000000      1.00000000      1.00000000      1.00000000      1.00000000      1.00000000      1.00000000      1.00000000      1.00000000      1.00000000
      1.00000000      1.00000000      1.00000000      1.00000000      1.00000000      1.00000000      1.00000000      1.00000000      1.00000000      1.00000000      1.00000000      1.00000000      1.00000000      1.00000000      1.00000000      1.00000000      1.00000000      1.00000000      1.00000000      1.00000000
      1.00000000      1.00000000      1.00000000      1.00000000      1.00000000      1.00000000      1.00000000      1.00000000      1.00000000      1.00000000      1.00000000      1.00000000      1.00000000      1.00000000      1.00000000      1.00000000      1.00000000      1.00000000      1.00000000      1.00000000
      1.00000000      1.00000000      1.00000000      1.00000000      1.00000000      1.00000000      1.00000000      1.00000000      1.00000000      1.00000000      1.00000000      1.00000000      1.00000000      1.00000000      1.00000000      1.00000000      1.00000000      1.00000000      1.00000000      1.00000000
      1.00000000      1.00000000      1.00000000      1.00000000      1.00000000      1.00000000      1.00000000      1.00000000      1.00000000      1.00000000      1.00000000      1.00000000      1.00000000      1.00000000      1.00000000      1.00000000      1.00000000      1.00000000      1.00000000      1.00000000
      1.00000000      1.00000000      1.00000000      1.00000000      1.00000000      1.00000000      1.00000000      1.00000000      1.00000000      1.00000000      1.00000000      1.00000000      1.00000000      1.00000000</v>
    <i name="NUPDOWN">     -1.00000000</i>
    <i type="logical" name="LSORBIT"> F  </i>
    <v name="SAXIS">      0.00000000      0.00000000      1.00000000</v>
    <i type="logical" name="LSPIRAL"> F  </i>
    <v name="QSPIRAL">      0.00000000      0.00000000      0.00000000</v>
    <i type="logical" name="LZEROZ"> F  </i>
   </separator>
   <separator name="electronic exchange-correlation" >
    <i type="logical" name="LASPH"> F  </i>
    <i type="logical" name="LMETAGGA"> F  </i>
   </separator>
   <separator name="electronic convergence" >
    <i type="int" name="NELM">   200</i>
    <i type="int" name="NELMDL">     0</i>
    <i type="int" name="NELMIN">     2</i>
    <i name="ENINI">    500.00000000</i>
    <separator name="electronic convergence detail" >
     <i type="logical" name="LDIAG"> T  </i>
     <i type="logical" name="LSUBROT"> F  </i>
     <i name="WEIMIN">      0.00000000</i>
     <i name="EBREAK">      0.00000001</i>
     <i name="DEPER">      0.30000000</i>
     <i type="int" name="NRMM">     4</i>
     <i name="TIME">      0.40000000</i>
    </separator>
   </separator>
   <separator name="electronic mixer" >
    <i name="AMIX">      0.40000000</i>
    <i name="BMIX">      1.00000000</i>
    <i name="AMIN">      0.10000000</i>
    <i name="AMIX_MAG">      1.60000000</i>
    <i name="BMIX_MAG">      1.00000000</i>
    <separator name="electronic mixer details" >
     <i type="int" name="IMIX">     4</i>
     <i type="logical" name="MIXFIRST"> F  </i>
     <i type="int" name="MAXMIX">   -45</i>
     <i name="WC">    100.00000000</i>
     <i type="int" name="INIMIX">     1</i>
     <i type="int" name="MIXPRE">     1</i>
     <i type="int" name="MREMOVE">     5</i>
    </separator>
   </separator>
   <separator name="electronic dipolcorrection" >
    <i type="logical" name="LDIPOL"> F  </i>
    <i type="logical" name="LMONO"> F  </i>
    <i type="int" name="IDIPOL">     0</i>
    <i name="EPSILON">      1.00000000</i>
    <v name="DIPOL">   -100.00000000   -100.00000000   -100.00000000</v>
    <i name="EFIELD">      0.00000000</i>
   </separator>
  </separator>
  <separator name="grids" >
   <i type="int" name="NGX">   216</i>
   <i type="int" name="NGY">   216</i>
   <i type="int" name="NGZ">   150</i>
   <i type="int" name="NGXF">   336</i>
   <i type="int" name="NGYF">   336</i>
   <i type="int" name="NGZF">   224</i>
   <i type="logical" name="ADDGRID"> F  </i>
  </separator>
  <separator name="ionic" >
   <i type="int" name="NSW">     0</i>
   <i type="int" name="IBRION">    -1</i>
   <i type="int" name="MDALGO">     0</i>
   <i type="int" name="ISIF">     2</i>
   <i name="PSTRESS">      0.00000000</i>
   <i name="EDIFFG">     -0.01000000</i>
   <i type="int" name="NFREE">     0</i>
   <i name="POTIM">      0.30000000</i>
   <i name="SMASS">     -3.00000000</i>
   <i name="SCALEE">      1.00000000</i>
  </separator>
  <separator name="ionic md" >
   <i name="TEBEG">      0.00010000</i>
   <i name="TEEND">      0.00010000</i>
   <i type="int" name="NBLOCK">     1</i>
   <i type="int" name="KBLOCK">     1</i>
   <i type="int" name="NPACO">   256</i>
   <i name="APACO">     16.00000000</i>
  </separator>
  <separator name="symmetry" >
   <i type="int" name="ISYM">     2</i>
   <i name="SYMPREC">      0.00001000</i>
  </separator>
  <separator name="dos" >
   <i type="int" name="LORBIT">     0</i>
   <v name="RWIGS">     -1.00000000     -1.00000000     -1.00000000     -1.00000000</v>
   <i type="int" name="NEDOS">   301</i>
   <i name="EMIN">     10.00000000</i>
   <i name="EMAX">    -10.00000000</i>
   <i name="EFERMI">      0.00000000</i>
  </separator>
  <separator name="writing" >
   <i type="int" name="NWRITE">     0</i>
   <i type="logical" name="LWAVE"> F  </i>
   <i type="logical" name="LDOWNSAMPLE"> F  </i>
   <i type="logical" name="LCHARG"> F  </i>
   <i type="logical" name="LPARD"> F  </i>
   <i type="logical" name="LVTOT"> F  </i>
   <i type="logical" name="LVHAR"> F  </i>
   <i type="logical" name="LELF"> F  </i>
   <i type="logical" name="LOPTICS"> F  </i>
   <v name="STM">      0.00000000      0.00000000      0.00000000      0.00000000      0.00000000      0.00000000      0.00000000</v>
  </separator>
  <separator name="performance" >
   <i type="int" name="NPAR">    16</i>
   <i type="int" name="NSIM">     4</i>
   <i type="int" name="NBLK">    -1</i>
   <i type="logical" name="LPLANE"> T  </i>
   <i type="logical" name="LSCALAPACK"> T  </i>
   <i type="logical" name="LSCAAWARE"> F  </i>
   <i type="logical" name="LSCALU"> F  </i>
   <i type="logical" name="LASYNC"> F  </i>
   <i type="logical" name="LORBITALREAL"> F  </i>
  </separator>
  <separator name="miscellaneous" >
   <i type="int" name="IDIOT">     3</i>
   <i type="int" name="ISPECIAL">     0</i>
   <i type="logical" name="LMUSIC"> F  </i>
   <v name="POMASS">     12.01100000      1.00000000     16.00000000     14.00100000</v>
   <v name="DARWINR">      0.00000000      0.00000000      0.00000000      0.00000000</v>
   <v name="DARWINV">      1.00000000      1.00000000      1.00000000      1.00000000</v>
   <i type="logical" name="LCORR"> T  </i>
  </separator>
  <i type="logical" name="GGA_COMPAT"> T  </i>
  <i type="logical" name="LBERRY"> F  </i>
  <i type="int" name="ICORELEVEL">     0</i>
  <i type="logical" name="LDAU"> F  </i>
  <i type="int" name="I_CONSTRAINED_M">     0</i>
  <separator name="electronic exchange-correlation" >
   <i type="string" name="GGA">PE</i>
   <i type="int" name="VOSKOWN">     0</i>
   <i type="logical" name="LHFCALC"> F  </i>
   <i type="string" name="PRECFOCK"></i>
   <i type="logical" name="LSYMGRAD"> F  </i>
   <i type="logical" name="LHFONE"> F  </i>
   <i type="logical" name="LRHFCALC"> F  </i>
   <i type="logical" name="LTHOMAS"> F  </i>
   <i type="logical" name="LMODELHF"> F  </i>
   <i name="ENCUT4O">     -1.00000000</i>
   <i type="int" name="EXXOEP">     0</i>
   <i type="int" name="FOURORBIT">     0</i>
   <i name="AEXX">      0.00000000</i>
   <i name="HFALPHA">      0.00000000</i>
   <i name="MCALPHA">      0.00000000</i>
   <i name="ALDAX">      1.00000000</i>
   <i name="AGGAX">      1.00000000</i>
   <i name="ALDAC">      1.00000000</i>
   <i name="AGGAC">      1.00000000</i>
   <i type="int" name="NKREDX">     1</i>
   <i type="int" name="NKREDY">     1</i>
   <i type="int" name="NKREDZ">     1</i>
   <i type="logical" name="SHIFTRED"> F  </i>
   <i type="logical" name="ODDONLY"> F  </i>
   <i type="logical" name="EVENONLY"> F  </i>
   <i type="int" name="LMAXFOCK">     0</i>
   <i type="int" name="NMAXFOCKAE">     0</i>
   <i type="logical" name="LFOCKAEDFT"> F  </i>
   <i name="HFSCREEN">      0.00000000</i>
   <i name="HFSCREENC">      0.00000000</i>
   <i type="int" name="NBANDSGWLOW">     0</i>
  </separator>
  <separator name="vdW DFT" >
   <i type="logical" name="LUSE_VDW"> F  </i>
   <i name="Zab_VDW">     -0.84910000</i>
   <i name="PARAM1">      0.12340000</i>
   <i name="PARAM2">      1.00000000</i>
   <i name="PARAM3">      0.00000000</i>
  </separator>
  <separator name="model GW" >
   <i type="int" name="MODEL_GW">     0</i>
   <i name="MODEL_EPS0">     80.30531841</i>
   <i name="MODEL_ALPHA">      1.00000000</i>
  </separator>
  <separator name="linear response parameters" >
   <i type="logical" name="LEPSILON"> F  </i>
   <i type="logical" name="LRPA"> F  </i>
   <i type="logical" name="LNABLA"> F  </i>
   <i type="logical" name="LVEL"> F  </i>
   <i type="int" name="KINTER">     0</i>
   <i name="CSHIFT">      0.10000000</i>
   <i name="OMEGAMAX">     -1.00000000</i>
   <i name="DEG_THRESHOLD">      0.00200000</i>
   <i name="RTIME">     -0.10000000</i>
   <i name="WPLASMAI">      0.00000000</i>
   <v name="DFIELD">      0.00000000      0.00000000      0.00000000</v>
   <v name="WPLASMA">      0.00000000      0.00000000      0.00000000      0.00000000      0.00000000      0.00000000      0.00000000      0.00000000      0.00000000</v>
  </separator>
  <separator name="orbital magnetization" >
   <i type="logical" name="NUCIND"> F  </i>
   <v name="MAGPOS">      0.00000000      0.00000000      0.00000000</v>
   <i type="logical" name="LNICSALL"> T  </i>
   <i type="logical" name="ORBITALMAG"> F  </i>
   <i type="logical" name="LMAGBLOCH"> F  </i>
   <i type="logical" name="LCHIMAG"> F  </i>
   <i type="logical" name="LGAUGE"> T  </i>
   <i type="int" name="MAGATOM">     0</i>
   <v name="MAGDIPOL">      0.00000000      0.00000000      0.00000000</v>
   <v name="AVECCONST">      0.00000000      0.00000000      0.00000000</v>
  </separator>
  <separator name="response functions" >
   <i type="logical" name="LADDER"> F  </i>
   <i type="logical" name="LRPAFORCE"> F  </i>
   <i type="logical" name="LFXC"> F  </i>
   <i type="logical" name="LHARTREE"> T  </i>
   <i type="int" name="IBSE">     0</i>
   <v type="int" name="KPOINT">    -1     0     0     0</v>
   <i type="logical" name="LTCTE"> F  </i>
   <i type="logical" name="LTETE"> F  </i>
   <i type="logical" name="LTRIPLET"> F  </i>
   <i type="logical" name="LFXCEPS"> F  </i>
   <i type="logical" name="LFXHEG"> F  </i>
   <i type="int" name="NATURALO">     2</i>
   <i type="logical" name="L2ORDER"> F  </i>
   <i type="logical" name="LMP2LT"> F  </i>
   <i type="logical" name="LUSEW"> F  </i>
   <i name="ENCUTGW">     -2.00000000</i>
   <i name="ENCUTGWSOFT">     -2.00000000</i>
   <i name="ENCUTLF">     -1.00000000</i>
   <i type="int" name="LMAXMP2">    -1</i>
   <i name="SCISSOR">      0.00000000</i>
   <i type="int" name="NOMEGA">     0</i>
   <i type="int" name="NOMEGAR">     0</i>
   <i type="int" name="NBANDSGW">    -1</i>
   <i type="int" name="NBANDSO">    -1</i>
   <i type="int" name="NBANDSV">    -1</i>
   <i type="int" name="NELM">   200</i>
   <i type="int" name="NELMHF">     1</i>
   <i type="int" name="DIM">     3</i>
   <i type="int" name="ANTIRES">     0</i>
   <i name="OMEGAMAX">    -30.00000000</i>
   <i name="OMEGAMIN">    -30.00000000</i>
   <i name="OMEGATL">   -200.00000000</i>
   <i type="int" name="OMEGAGRID">   140</i>
   <i name="CSHIFT">     -0.10000000</i>
   <i type="logical" name="SELFENERGY"> F  </i>
   <i type="logical" name="LSPECTRAL"> F  </i>
   <i type="logical" name="LSPECTRALGW"> F  </i>
   <i type="logical" name="LSINGLES"> F  </i>
   <i type="logical" name="LFERMIGW"> F  </i>
   <i type="logical" name="ODDONLYGW"> F  </i>
   <i type="logical" name="EVENONLYGW"> F  </i>
   <i type="int" name="NKREDLFX">     1</i>
   <i type="int" name="NKREDLFY">     1</i>
   <i type="int" name="NKREDLFZ">     1</i>
   <i type="int" name="MAXMEM">  2800</i>
   <i type="int" name="TELESCOPE">     0</i>
   <i type="int" name="TAUPAR">     1</i>
   <i type="int" name="OMEGAPAR">    -1</i>
   <i name="LAMBDA">      1.00000000</i>
  </separator>
  <separator name="External order field" >
   <i name="OFIELD_KAPPA">      0.00000000</i>
   <v name="OFIELD_K">      0.00000000      0.00000000      0.00000000</v>
   <i name="OFIELD_Q6_NEAR">      0.00000000</i>
   <i name="OFIELD_Q6_FAR">      0.00000000</i>
   <i name="OFIELD_A">      0.00000000</i>
  </separator>
  <separator name="solvation model" >
   <i type="logical" name="LSOL"> F  </i>
  </separator>
 </parameters>
 <atominfo>
  <atoms>     114 </atoms>
  <types>       4 </types>
  <array name="atoms" >
   <dimension dim="1">ion</dimension>
   <field type="string">element</field>
   <field type="int">atomtype</field>
   <set>
    <rc><c>C </c><c>   1</c></rc>
    <rc><c>C </c><c>   1</c></rc>
    <rc><c>C </c><c>   1</c></rc>
    <rc><c>C </c><c>   1</c></rc>
    <rc><c>C </c><c>   1</c></rc>
    <rc><c>C </c><c>   1</c></rc>
    <rc><c>C </c><c>   1</c></rc>
    <rc><c>C </c><c>   1</c></rc>
    <rc><c>C </c><c>   1</c></rc>
    <rc><c>C </c><c>   1</c></rc>
    <rc><c>C </c><c>   1</c></rc>
    <rc><c>C </c><c>   1</c></rc>
    <rc><c>C </c><c>   1</c></rc>
    <rc><c>C </c><c>   1</c></rc>
    <rc><c>C </c><c>   1</c></rc>
    <rc><c>C </c><c>   1</c></rc>
    <rc><c>C </c><c>   1</c></rc>
    <rc><c>C </c><c>   1</c></rc>
    <rc><c>C </c><c>   1</c></rc>
    <rc><c>C </c><c>   1</c></rc>
    <rc><c>C </c><c>   1</c></rc>
    <rc><c>C </c><c>   1</c></rc>
    <rc><c>C </c><c>   1</c></rc>
    <rc><c>C </c><c>   1</c></rc>
    <rc><c>C </c><c>   1</c></rc>
    <rc><c>C </c><c>   1</c></rc>
    <rc><c>C </c><c>   1</c></rc>
    <rc><c>C </c><c>   1</c></rc>
    <rc><c>C </c><c>   1</c></rc>
    <rc><c>C </c><c>   1</c></rc>
    <rc><c>C </c><c>   1</c></rc>
    <rc><c>C </c><c>   1</c></rc>
    <rc><c>C </c><c>   1</c></rc>
    <rc><c>C </c><c>   1</c></rc>
    <rc><c>C </c><c>   1</c></rc>
    <rc><c>C </c><c>   1</c></rc>
    <rc><c>C </c><c>   1</c></rc>
    <rc><c>C </c><c>   1</c></rc>
    <rc><c>C </c><c>   1</c></rc>
    <rc><c>C </c><c>   1</c></rc>
    <rc><c>C </c><c>   1</c></rc>
    <rc><c>C </c><c>   1</c></rc>
    <rc><c>C </c><c>   1</c></rc>
    <rc><c>C </c><c>   1</c></rc>
    <rc><c>C </c><c>   1</c></rc>
    <rc><c>C </c><c>   1</c></rc>
    <rc><c>C </c><c>   1</c></rc>
    <rc><c>C </c><c>   1</c></rc>
    <rc><c>C </c><c>   1</c></rc>
    <rc><c>C </c><c>   1</c></rc>
    <rc><c>C </c><c>   1</c></rc>
    <rc><c>C </c><c>   1</c></rc>
    <rc><c>C </c><c>   1</c></rc>
    <rc><c>C </c><c>   1</c></rc>
    <rc><c>C </c><c>   1</c></rc>
    <rc><c>C </c><c>   1</c></rc>
    <rc><c>C </c><c>   1</c></rc>
    <rc><c>C </c><c>   1</c></rc>
    <rc><c>C </c><c>   1</c></rc>
    <rc><c>C </c><c>   1</c></rc>
    <rc><c>H </c><c>   2</c></rc>
    <rc><c>H </c><c>   2</c></rc>
    <rc><c>H </c><c>   2</c></rc>
    <rc><c>H </c><c>   2</c></rc>
    <rc><c>H </c><c>   2</c></rc>
    <rc><c>H </c><c>   2</c></rc>
    <rc><c>H </c><c>   2</c></rc>
    <rc><c>H </c><c>   2</c></rc>
    <rc><c>H </c><c>   2</c></rc>
    <rc><c>H </c><c>   2</c></rc>
    <rc><c>H </c><c>   2</c></rc>
    <rc><c>H </c><c>   2</c></rc>
    <rc><c>H </c><c>   2</c></rc>
    <rc><c>H </c><c>   2</c></rc>
    <rc><c>H </c><c>   2</c></rc>
    <rc><c>H </c><c>   2</c></rc>
    <rc><c>H </c><c>   2</c></rc>
    <rc><c>H </c><c>   2</c></rc>
    <rc><c>H </c><c>   2</c></rc>
    <rc><c>H </c><c>   2</c></rc>
    <rc><c>H </c><c>   2</c></rc>
    <rc><c>H </c><c>   2</c></rc>
    <rc><c>H </c><c>   2</c></rc>
    <rc><c>H </c><c>   2</c></rc>
    <rc><c>H </c><c>   2</c></rc>
    <rc><c>H </c><c>   2</c></rc>
    <rc><c>H </c><c>   2</c></rc>
    <rc><c>H </c><c>   2</c></rc>
    <rc><c>H </c><c>   2</c></rc>
    <rc><c>H </c><c>   2</c></rc>
    <rc><c>H </c><c>   2</c></rc>
    <rc><c>H </c><c>   2</c></rc>
    <rc><c>H </c><c>   2</c></rc>
    <rc><c>H </c><c>   2</c></rc>
    <rc><c>H </c><c>   2</c></rc>
    <rc><c>H </c><c>   2</c></rc>
    <rc><c>H </c><c>   2</c></rc>
    <rc><c>H </c><c>   2</c></rc>
    <rc><c>H </c><c>   2</c></rc>
    <rc><c>O </c><c>   3</c></rc>
    <rc><c>O </c><c>   3</c></rc>
    <rc><c>O </c><c>   3</c></rc>
    <rc><c>O </c><c>   3</c></rc>
    <rc><c>O </c><c>   3</c></rc>
    <rc><c>O </c><c>   3</c></rc>
    <rc><c>N </c><c>   4</c></rc>
    <rc><c>N </c><c>   4</c></rc>
    <rc><c>N </c><c>   4</c></rc>
    <rc><c>N </c><c>   4</c></rc>
    <rc><c>N </c><c>   4</c></rc>
    <rc><c>N </c><c>   4</c></rc>
    <rc><c>N </c><c>   4</c></rc>
    <rc><c>N </c><c>   4</c></rc>
    <rc><c>N </c><c>   4</c></rc>
   </set>
  </array>
  <array name="atomtypes" >
   <dimension dim="1">type</dimension>
   <field type="int">atomspertype</field>
   <field type="string">element</field>
   <field>mass</field>
   <field>valence</field>
   <field type="string">pseudopotential</field>
   <set>
    <rc><c>  60</c><c>C </c><c>     12.01100000</c><c>      4.00000000</c><c>  PAW_PBE C 08Apr2002                   </c></rc>
    <rc><c>  39</c><c>H </c><c>      1.00000000</c><c>      1.00000000</c><c>  PAW_PBE H 15Jun2001                   </c></rc>
    <rc><c>   6</c><c>O </c><c>     16.00000000</c><c>      6.00000000</c><c>  PAW_PBE O 08Apr2002                   </c></rc>
    <rc><c>   9</c><c>N </c><c>     14.00100000</c><c>      5.00000000</c><c>  PAW_PBE N 08Apr2002                   </c></rc>
   </set>
  </array>
 </atominfo>
 <structure name="initialpos" >
  <crystal>
   <varray name="basis" >
    <v>      29.67932897       0.01792660       0.00000000 </v>
    <v>     -14.82416650      25.69582280       0.00000000 </v>
    <v>       0.00000000       0.00000000      20.00000000 </v>
   </varray>
   <i name="volume">  15258.01049727 </i>
   <varray name="rec_basis" >
    <v>       0.03368175       0.01943132       0.00000000 </v>
    <v>      -0.00002350       0.03890328       0.00000000 </v>
    <v>       0.00000000       0.00000000       0.05000000 </v>
   </varray>
  </crystal>
  <varray name="positions" >
   <v>       0.35363785       0.72070330       0.49101513 </v>
   <v>       0.29949883       0.68698442       0.49059474 </v>
   <v>       0.27932241       0.63302515       0.49096132 </v>
   <v>       0.31307213       0.61258118       0.49050082 </v>
   <v>       0.36699513       0.64629855       0.49098558 </v>
   <v>       0.38738399       0.70047023       0.49062324 </v>
   <v>       0.64550639       0.27897418       0.51164877 </v>
   <v>       0.69976759       0.31183246       0.51205829 </v>
   <v>       0.72134847       0.36609095       0.51167987 </v>
   <v>       0.68846282       0.38752617       0.51238004 </v>
   <v>       0.63423286       0.35491178       0.51195391 </v>
   <v>       0.61286453       0.30061870       0.51233952 </v>
   <v>       0.42934904       0.86140603       0.52708265 </v>
   <v>       0.45441146       0.89199524       0.58309939 </v>
   <v>       0.47617999       0.94568501       0.57938635 </v>
   <v>       0.47787564       0.97181046       0.51969045 </v>
   <v>       0.50695360       0.02859717       0.51066429 </v>
   <v>       0.55179819       0.06150680       0.54818117 </v>
   <v>       0.57783979       0.11487527       0.53909613 </v>
   <v>       0.40530410       0.80477484       0.53146950 </v>
   <v>       0.43173907       0.57026921       0.52716079 </v>
   <v>       0.43714138       0.54507800       0.58318131 </v>
   <v>       0.46929749       0.52354023       0.57963351 </v>
   <v>       0.49389863       0.52200933       0.52004054 </v>
   <v>       0.52180135       0.49308152       0.51119050 </v>
   <v>       0.50988908       0.44814387       0.54857301 </v>
   <v>       0.53742218       0.42226821       0.53962919 </v>
   <v>       0.39912898       0.59433558       0.53136147 </v>
   <v>       0.13867547       0.56833169       0.52688675 </v>
   <v>       0.10802530       0.56291012       0.58282587 </v>
   <v>       0.05438699       0.53083977       0.57911914 </v>
   <v>       0.02840090       0.50630055       0.51942605 </v>
   <v>       0.97164956       0.47850574       0.51036487 </v>
   <v>       0.93864806       0.49053289       0.54760677 </v>
   <v>       0.88530605       0.46303503       0.53861174 </v>
   <v>       0.19527492       0.60090988       0.53126238 </v>
   <v>       0.45113375       0.94000595       0.46379815 </v>
   <v>       0.42717147       0.88612103       0.46817944 </v>
   <v>       0.55995086       0.13730300       0.49152007 </v>
   <v>       0.51670683       0.10449874       0.45199680 </v>
   <v>       0.49045974       0.05065043       0.46025110 </v>
   <v>       0.44556325       0.01476432       0.41614454 </v>
   <v>       0.44960349       0.96640867       0.40007105 </v>
   <v>       0.58515190       0.19363302       0.48295632 </v>
   <v>       0.48889585       0.54879875       0.46412840 </v>
   <v>       0.45887118       0.57267657       0.46840236 </v>
   <v>       0.57790328       0.44042836       0.49232100 </v>
   <v>       0.58833911       0.48377823       0.45295580 </v>
   <v>       0.56055000       0.50986496       0.46107525 </v>
   <v>       0.56952992       0.55484391       0.41708994 </v>
   <v>       0.51711211       0.55055094       0.40058880 </v>
   <v>       0.60917017       0.41536011       0.48370662 </v>
   <v>       0.06025697       0.51129561       0.46361501 </v>
   <v>       0.11409129       0.54128091       0.46804243 </v>
   <v>       0.86302802       0.42249001       0.49136947 </v>
   <v>       0.89592614       0.41202425       0.45201614 </v>
   <v>       0.94974507       0.43977752       0.46019852 </v>
   <v>       0.98575934       0.43076715       0.41628851 </v>
   <v>       0.03392669       0.48317513       0.39998491 </v>
   <v>       0.80673691       0.39119577       0.48288436 </v>
   <v>       0.29702641       0.57061706       0.48768095 </v>
   <v>       0.42932769       0.72637137       0.48792083 </v>
   <v>       0.27359356       0.70306654       0.48786921 </v>
   <v>       0.70575059       0.42958642       0.51666710 </v>
   <v>       0.57082629       0.27586728       0.51662518 </v>
   <v>       0.72453426       0.29450844       0.51610835 </v>
   <v>       0.56699494       0.04504772       0.58445466 </v>
   <v>       0.61223392       0.14029705       0.56850066 </v>
   <v>       0.45561680       0.87434990       0.63041003 </v>
   <v>       0.41628565       0.78944304       0.57513679 </v>
   <v>       0.47808376       0.43273577       0.58459137 </v>
   <v>       0.52845813       0.38778734       0.56889490 </v>
   <v>       0.41801651       0.54360856       0.63034977 </v>
   <v>       0.37255292       0.58314911       0.57475624 </v>
   <v>       0.95502224       0.52239508       0.58356068 </v>
   <v>       0.85980693       0.47206464       0.56780762 </v>
   <v>       0.12558370       0.58196129       0.63006485 </v>
   <v>       0.21058183       0.62742893       0.57472969 </v>
   <v>       0.40657698       0.86191681       0.42514513 </v>
   <v>       0.50345308       0.12155190       0.41368977 </v>
   <v>       0.40833307       0.00278687       0.44187105 </v>
   <v>       0.44553131       0.03498977       0.37012118 </v>
   <v>       0.41689575       0.93883817       0.36888873 </v>
   <v>       0.48549190       0.97817809       0.37109613 </v>
   <v>       0.56690154       0.20773682       0.44651648 </v>
   <v>       0.45538183       0.59339246       0.42539782 </v>
   <v>       0.61878164       0.49722570       0.41486117 </v>
   <v>       0.59444493       0.59205043       0.44305904 </v>
   <v>       0.59008605       0.55512020       0.37125181 </v>
   <v>       0.52216976       0.58324581       0.36937742 </v>
   <v>       0.49329761       0.51463793       0.37151365 </v>
   <v>       0.64154094       0.43378457       0.44735404 </v>
   <v>       0.13835808       0.54482851       0.42510972 </v>
   <v>       0.87896252       0.38156800       0.41392654 </v>
   <v>       0.99794276       0.40573959       0.44226044 </v>
   <v>       0.96559110       0.41031144       0.37035667 </v>
   <v>       0.06157255       0.47806657       0.36887322 </v>
   <v>       0.02195984       0.50710375       0.37085529 </v>
   <v>       0.79275882       0.35891075       0.44636144 </v>
   <v>       0.52169349       0.96331214       0.67972042 </v>
   <v>       0.47764606       0.00345513       0.65890570 </v>
   <v>       0.44164748       0.47781811       0.67987079 </v>
   <v>       0.52575007       0.52247934       0.65924916 </v>
   <v>       0.03650335       0.55863167       0.67938973 </v>
   <v>       0.99651809       0.47450308       0.65849638 </v>
   <v>       0.37275123       0.77440665       0.48759193 </v>
   <v>       0.22565260       0.59844602       0.48760174 </v>
   <v>       0.40159960       0.62717734       0.48766840 </v>
   <v>       0.62600140       0.22530593       0.51607830 </v>
   <v>       0.77497880       0.40020911       0.51613203 </v>
   <v>       0.60005318       0.37440874       0.51659964 </v>
   <v>       0.49373111       0.97347662       0.64393783 </v>
   <v>       0.47968027       0.50606870       0.64419389 </v>
   <v>       0.02646149       0.52054285       0.64359885 </v>
  </varray>
 </structure>
 <calculation>
  <scstep>
   <time name="dav">  315.73  319.08</time>
   <time name="total">  316.00  319.36</time>
   <energy>
    <i name="alphaZ">     39.16887181 </i>
    <i name="ewald">  42861.71769801 </i>
    <i name="hartreedc"> -54546.35597773 </i>
    <i name="XCdc">   1280.84413463 </i>
    <i name="pawpsdc">  32695.22466563 </i>
    <i name="pawaedc"> -32761.05519014 </i>
    <i name="eentropy">     -0.00000000 </i>
    <i name="bandstr">  -4648.38039784 </i>
    <i name="atom">  14290.82831829 </i>
    <i name="e_fr_energy">   -788.00787733 </i>
    <i name="e_wo_entrp">   -788.00787733 </i>
    <i name="e_0_energy">   -788.00787733 </i>
   </energy>
  </scstep>
  <scstep>
   <time name="dav">  350.96  354.73</time>
   <time name="total">  350.97  354.75</time>
   <energy>
    <i name="e_fr_energy">   -788.46438319 </i>
    <i name="e_wo_entrp">   -788.46438319 </i>
    <i name="e_0_energy">   -788.46438319 </i>
   </energy>
  </scstep>
  <scstep>
   <time name="dav">  397.19  401.54</time>
   <time name="total">  397.20  401.55</time>
   <energy>
    <i name="e_fr_energy">   -788.47865346 </i>
    <i name="e_wo_entrp">   -788.47865346 </i>
    <i name="e_0_energy">   -788.47865346 </i>
   </energy>
  </scstep>
  <scstep>
   <time name="dav">  344.58  348.27</time>
   <time name="total">  344.59  348.29</time>
   <energy>
    <i name="e_fr_energy">   -788.47892801 </i>
    <i name="e_wo_entrp">   -788.47892801 </i>
    <i name="e_0_energy">   -788.47892801 </i>
   </energy>
  </scstep>
  <scstep>
   <time name="dav">  350.44  354.24</time>
   <time name="total">  350.46  354.27</time>
   <energy>
    <i name="e_fr_energy">   -788.47894342 </i>
    <i name="e_wo_entrp">   -788.47894342 </i>
    <i name="e_0_energy">   -788.47894342 </i>
   </energy>
  </scstep>
  <scstep>
   <time name="dav">  265.14  268.11</time>
   <time name="total">  265.15  268.12</time>
   <energy>
    <i name="alphaZ">     39.16887181 </i>
    <i name="ewald">  42861.71769801 </i>
    <i name="hartreedc"> -54546.35597773 </i>
    <i name="XCdc">   1280.84413463 </i>
    <i name="pawpsdc">  32695.22466563 </i>
    <i name="pawaedc"> -32761.05519014 </i>
    <i name="eentropy">     -0.00000000 </i>
    <i name="bandstr">  -4648.85146439 </i>
    <i name="atom">  14290.82831829 </i>
    <i name="e_fr_energy">   -788.47894388 </i>
    <i name="e_wo_entrp">   -788.47894388 </i>
    <i name="e_0_energy">   -788.47894388 </i>
   </energy>
  </scstep>
  <structure>
   <crystal>
    <varray name="basis" >
     <v>      29.67932897       0.01792660       0.00000000 </v>
     <v>     -14.82416650      25.69582280       0.00000000 </v>
     <v>       0.00000000       0.00000000      20.00000000 </v>
    </varray>
    <i name="volume">  15258.01049727 </i>
    <varray name="rec_basis" >
     <v>       0.03368175       0.01943132       0.00000000 </v>
     <v>      -0.00002350       0.03890328       0.00000000 </v>
     <v>       0.00000000       0.00000000       0.05000000 </v>
    </varray>
   </crystal>
   <varray name="positions" >
    <v>       0.35363785       0.72070330       0.49101513 </v>
    <v>       0.29949883       0.68698442       0.49059474 </v>
    <v>       0.27932241       0.63302515       0.49096132 </v>
    <v>       0.31307213       0.61258118       0.49050082 </v>
    <v>       0.36699513       0.64629855       0.49098558 </v>
    <v>       0.38738399       0.70047023       0.49062324 </v>
    <v>       0.64550639       0.27897418       0.51164877 </v>
    <v>       0.69976759       0.31183246       0.51205829 </v>
    <v>       0.72134847       0.36609095       0.51167987 </v>
    <v>       0.68846282       0.38752617       0.51238004 </v>
    <v>       0.63423286       0.35491178       0.51195391 </v>
    <v>       0.61286453       0.30061870       0.51233952 </v>
    <v>       0.42934904       0.86140603       0.52708265 </v>
    <v>       0.45441146       0.89199524       0.58309939 </v>
    <v>       0.47617999       0.94568501       0.57938635 </v>
    <v>       0.47787564       0.97181046       0.51969045 </v>
    <v>       0.50695360       0.02859717       0.51066429 </v>
    <v>       0.55179819       0.06150680       0.54818117 </v>
    <v>       0.57783979       0.11487527       0.53909613 </v>
    <v>       0.40530410       0.80477484       0.53146950 </v>
    <v>       0.43173907       0.57026921       0.52716079 </v>
    <v>       0.43714138       0.54507800       0.58318131 </v>
    <v>       0.46929749       0.52354023       0.57963351 </v>
    <v>       0.49389863       0.52200933       0.52004054 </v>
    <v>       0.52180135       0.49308152       0.51119050 </v>
    <v>       0.50988908       0.44814387       0.54857301 </v>
    <v>       0.53742218       0.42226821       0.53962919 </v>
    <v>       0.39912898       0.59433558       0.53136147 </v>
    <v>       0.13867547       0.56833169       0.52688675 </v>
    <v>       0.10802530       0.56291012       0.58282587 </v>
    <v>       0.05438699       0.53083977       0.57911914 </v>
    <v>       0.02840090       0.50630055       0.51942605 </v>
    <v>       0.97164956       0.47850574       0.51036487 </v>
    <v>       0.93864806       0.49053289       0.54760677 </v>
    <v>       0.88530605       0.46303503       0.53861174 </v>
    <v>       0.19527492       0.60090988       0.53126238 </v>
    <v>       0.45113375       0.94000595       0.46379815 </v>
    <v>       0.42717147       0.88612103       0.46817944 </v>
    <v>       0.55995086       0.13730300       0.49152007 </v>
    <v>       0.51670683       0.10449874       0.45199680 </v>
    <v>       0.49045974       0.05065043       0.46025110 </v>
    <v>       0.44556325       0.01476432       0.41614454 </v>
    <v>       0.44960349       0.96640867       0.40007105 </v>
    <v>       0.58515190       0.19363302       0.48295632 </v>
    <v>       0.48889585       0.54879875       0.46412840 </v>
    <v>       0.45887118       0.57267657       0.46840236 </v>
    <v>       0.57790328       0.44042836       0.49232100 </v>
    <v>       0.58833911       0.48377823       0.45295580 </v>
    <v>       0.56055000       0.50986496       0.46107525 </v>
    <v>       0.56952992       0.55484391       0.41708994 </v>
    <v>       0.51711211       0.55055094       0.40058880 </v>
    <v>       0.60917017       0.41536011       0.48370662 </v>
    <v>       0.06025697       0.51129561       0.46361501 </v>
    <v>       0.11409129       0.54128091       0.46804243 </v>
    <v>       0.86302802       0.42249001       0.49136947 </v>
    <v>       0.89592614       0.41202425       0.45201614 </v>
    <v>       0.94974507       0.43977752       0.46019852 </v>
    <v>       0.98575934       0.43076715       0.41628851 </v>
    <v>       0.03392669       0.48317513       0.39998491 </v>
    <v>       0.80673691       0.39119577       0.48288436 </v>
    <v>       0.29702641       0.57061706       0.48768095 </v>
    <v>       0.42932769       0.72637137       0.48792083 </v>
    <v>       0.27359356       0.70306654       0.48786921 </v>
    <v>       0.70575059       0.42958642       0.51666710 </v>
    <v>       0.57082629       0.27586728       0.51662518 </v>
    <v>       0.72453426       0.29450844       0.51610835 </v>
    <v>       0.56699494       0.04504772       0.58445466 </v>
    <v>       0.61223392       0.14029705       0.56850066 </v>
    <v>       0.45561680       0.87434990       0.63041003 </v>
    <v>       0.41628565       0.78944304       0.57513679 </v>
    <v>       0.47808376       0.43273577       0.58459137 </v>
    <v>       0.52845813       0.38778734       0.56889490 </v>
    <v>       0.41801651       0.54360856       0.63034977 </v>
    <v>       0.37255292       0.58314911       0.57475624 </v>
    <v>       0.95502224       0.52239508       0.58356068 </v>
    <v>       0.85980693       0.47206464       0.56780762 </v>
    <v>       0.12558370       0.58196129       0.63006485 </v>
    <v>       0.21058183       0.62742893       0.57472969 </v>
    <v>       0.40657698       0.86191681       0.42514513 </v>
    <v>       0.50345308       0.12155190       0.41368977 </v>
    <v>       0.40833307       0.00278687       0.44187105 </v>
    <v>       0.44553131       0.03498977       0.37012118 </v>
    <v>       0.41689575       0.93883817       0.36888873 </v>
    <v>       0.48549190       0.97817809       0.37109613 </v>
    <v>       0.56690154       0.20773682       0.44651648 </v>
    <v>       0.45538183       0.59339246       0.42539782 </v>
    <v>       0.61878164       0.49722570       0.41486117 </v>
    <v>       0.59444493       0.59205043       0.44305904 </v>
    <v>       0.59008605       0.55512020       0.37125181 </v>
    <v>       0.52216976       0.58324581       0.36937742 </v>
    <v>       0.49329761       0.51463793       0.37151365 </v>
    <v>       0.64154094       0.43378457       0.44735404 </v>
    <v>       0.13835808       0.54482851       0.42510972 </v>
    <v>       0.87896252       0.38156800       0.41392654 </v>
    <v>       0.99794276       0.40573959       0.44226044 </v>
    <v>       0.96559110       0.41031144       0.37035667 </v>
    <v>       0.06157255       0.47806657       0.36887322 </v>
    <v>       0.02195984       0.50710375       0.37085529 </v>
    <v>       0.79275882       0.35891075       0.44636144 </v>
    <v>       0.52169349       0.96331214       0.67972042 </v>
    <v>       0.47764606       0.00345513       0.65890570 </v>
    <v>       0.44164748       0.47781811       0.67987079 </v>
    <v>       0.52575007       0.52247934       0.65924916 </v>
    <v>       0.03650335       0.55863167       0.67938973 </v>
    <v>       0.99651809       0.47450308       0.65849638 </v>
    <v>       0.37275123       0.77440665       0.48759193 </v>
    <v>       0.22565260       0.59844602       0.48760174 </v>
    <v>       0.40159960       0.62717734       0.48766840 </v>
    <v>       0.62600140       0.22530593       0.51607830 </v>
    <v>       0.77497880       0.40020911       0.51613203 </v>
    <v>       0.60005318       0.37440874       0.51659964 </v>
    <v>       0.49373111       0.97347662       0.64393783 </v>
    <v>       0.47968027       0.50606870       0.64419389 </v>
    <v>       0.02646149       0.52054285       0.64359885 </v>
   </varray>
  </structure>
  <varray name="forces" >
   <v>      -0.00055188      -0.00300912      -0.00024536 </v>
   <v>       0.00277961       0.00092431       0.00001495 </v>
   <v>      -0.00050045      -0.00104843      -0.00010246 </v>
   <v>      -0.00386554      -0.00075597       0.00077159 </v>
   <v>      -0.00025405       0.00571843      -0.00071744 </v>
   <v>       0.00174560      -0.00221220      -0.00043457 </v>
   <v>      -0.00226457       0.00089009       0.00062162 </v>
   <v>      -0.00191922      -0.00085618       0.00042847 </v>
   <v>       0.00088353       0.00103830       0.00093761 </v>
   <v>       0.00076899      -0.00107169       0.00044586 </v>
   <v>       0.00069819      -0.00488194      -0.00052828 </v>
   <v>      -0.00122162      -0.00175432       0.00068255 </v>
   <v>       0.00045948       0.00437211      -0.00433952 </v>
   <v>       0.00221163       0.00069607      -0.00238376 </v>
   <v>      -0.00099086       0.00095298       0.00198190 </v>
   <v>       0.00154045      -0.00134085      -0.00084433 </v>
   <v>       0.00084755       0.00138268       0.00005599 </v>
   <v>       0.00345050       0.00269208      -0.00021899 </v>
   <v>       0.00288060       0.00121029       0.00047726 </v>
   <v>      -0.00126244      -0.00044897      -0.00655867 </v>
   <v>       0.00020033       0.00073763      -0.00657462 </v>
   <v>      -0.00096877       0.00078000      -0.00220131 </v>
   <v>       0.00136416       0.00029446       0.00331056 </v>
   <v>       0.00120505       0.00168380      -0.00077595 </v>
   <v>       0.00032411       0.00155561       0.00085697 </v>
   <v>      -0.00091041      -0.00030747      -0.00165106 </v>
   <v>       0.00248723      -0.00212042      -0.00309048 </v>
   <v>      -0.00086440      -0.00268645      -0.00046371 </v>
   <v>      -0.00289553       0.00199821       0.00337947 </v>
   <v>       0.00025950       0.00076166      -0.00058291 </v>
   <v>      -0.00046707      -0.00135929      -0.00426905 </v>
   <v>      -0.00316793       0.00085113       0.00150474 </v>
   <v>       0.00094130       0.00187269      -0.00036233 </v>
   <v>      -0.00017297       0.00100248      -0.00186931 </v>
   <v>      -0.00181137       0.00173874      -0.00073343 </v>
   <v>      -0.00154516       0.00089480       0.00046894 </v>
   <v>      -0.00004739      -0.00631583       0.00000859 </v>
   <v>      -0.00113501      -0.00311979      -0.00339653 </v>
   <v>       0.00214597      -0.00480945       0.00198532 </v>
   <v>      -0.00215894      -0.00181954       0.00013906 </v>
   <v>      -0.00181195      -0.00066898      -0.00126573 </v>
   <v>      -0.00133885       0.00499216       0.00425514 </v>
   <v>      -0.00151903      -0.00115123       0.00016312 </v>
   <v>       0.00190421       0.00032227       0.00157686 </v>
   <v>      -0.00070512       0.00242013       0.00038363 </v>
   <v>      -0.00270667       0.00196466      -0.00152952 </v>
   <v>      -0.00203062       0.00024939       0.00101368 </v>
   <v>       0.00127123       0.00255725       0.00032527 </v>
   <v>       0.00174393       0.00147568      -0.00056033 </v>
   <v>       0.00314805      -0.00000208       0.00110794 </v>
   <v>      -0.00076318       0.00281831       0.00079731 </v>
   <v>      -0.00158965       0.00398677      -0.00450318 </v>
   <v>      -0.00328633       0.00074349       0.00257516 </v>
   <v>      -0.00005778       0.00231447       0.00074666 </v>
   <v>      -0.00206402      -0.00047491       0.00008098 </v>
   <v>       0.00002913      -0.00093509       0.00060245 </v>
   <v>       0.00245263       0.00042033       0.00199374 </v>
   <v>       0.00011779       0.00006096       0.00207732 </v>
   <v>      -0.00123229      -0.00271585      -0.00204866 </v>
   <v>      -0.00223517      -0.00325990      -0.00131889 </v>
   <v>       0.00091143      -0.00085405       0.00035403 </v>
   <v>      -0.00024397      -0.00220425      -0.00029700 </v>
   <v>       0.00005141      -0.00022175      -0.00074766 </v>
   <v>      -0.00018505       0.00100142       0.00059840 </v>
   <v>       0.00266621       0.00266661      -0.00062060 </v>
   <v>       0.00170102      -0.00009136       0.00041732 </v>
   <v>       0.00386163       0.00059115      -0.00223097 </v>
   <v>       0.00213605      -0.00276515      -0.00292974 </v>
   <v>       0.00645865       0.00045215      -0.00092081 </v>
   <v>       0.00529275      -0.00400641       0.00285020 </v>
   <v>      -0.00181505      -0.00108711      -0.00185154 </v>
   <v>      -0.00198716      -0.00120425      -0.00357728 </v>
   <v>      -0.00041727       0.00070149       0.00257652 </v>
   <v>      -0.00124031      -0.00147445      -0.00029142 </v>
   <v>      -0.00118611       0.00187989      -0.00016159 </v>
   <v>      -0.00077673       0.00110897      -0.00212284 </v>
   <v>      -0.00026695       0.00090992      -0.00119554 </v>
   <v>      -0.00073430       0.00285099      -0.00187596 </v>
   <v>      -0.00063612       0.00408918       0.00358737 </v>
   <v>      -0.00077116      -0.00112759       0.00369960 </v>
   <v>      -0.00128474      -0.00067983       0.00476589 </v>
   <v>      -0.00185570      -0.00171236       0.00321499 </v>
   <v>      -0.00185125      -0.00016741       0.00248928 </v>
   <v>      -0.00436784       0.00151651       0.00035125 </v>
   <v>      -0.00240364      -0.00017293      -0.00144428 </v>
   <v>       0.00199991      -0.00116535       0.00362945 </v>
   <v>       0.00060221       0.00229429       0.00153167 </v>
   <v>      -0.00035530       0.00073191       0.00292009 </v>
   <v>      -0.00150293       0.00270652       0.00049093 </v>
   <v>      -0.00027569       0.00208142       0.00290185 </v>
   <v>       0.00281586       0.00241167      -0.00125461 </v>
   <v>       0.00054938      -0.00023785       0.00008998 </v>
   <v>       0.00006062      -0.00166894      -0.00040095 </v>
   <v>       0.00178450      -0.00186007       0.00009869 </v>
   <v>       0.00082200      -0.00302420       0.00349478 </v>
   <v>       0.00144001      -0.00090102       0.00246119 </v>
   <v>       0.00113661      -0.00144138       0.00226736 </v>
   <v>       0.00240599      -0.00373649       0.00135112 </v>
   <v>       0.00102836       0.00177351       0.00120265 </v>
   <v>      -0.00219665       0.00485725      -0.00357195 </v>
   <v>      -0.00398623       0.00291525       0.00164912 </v>
   <v>      -0.00760064      -0.00143197       0.00134818 </v>
   <v>      -0.00437824      -0.00019511      -0.00041527 </v>
   <v>      -0.00384332      -0.00464285      -0.00067860 </v>
   <v>       0.00093964      -0.00636618      -0.00089442 </v>
   <v>       0.00066303      -0.00018377       0.00059875 </v>
   <v>       0.00149780       0.00106218       0.00248895 </v>
   <v>       0.00045369      -0.00275046      -0.00154790 </v>
   <v>       0.00080757       0.00116821       0.00052063 </v>
   <v>       0.00242499      -0.00246241      -0.00127631 </v>
   <v>       0.00117844      -0.00390691       0.00132994 </v>
   <v>       0.00357606      -0.00195840      -0.00157216 </v>
   <v>       0.00590162       0.00516693      -0.00208628 </v>
   <v>       0.00345043       0.00151633      -0.00351481 </v>
  </varray>
  <varray name="stress" >
   <v>       0.00073912       0.00068547      -0.00110158 </v>
   <v>       0.00068547      -0.00202826       0.00426782 </v>
   <v>      -0.00110159       0.00426782      -0.18690185 </v>
  </varray>
  <energy>
   <i name="e_fr_energy">   -790.71003487 </i>
   <i name="e_wo_entrp">   -790.71003487 </i>
   <i name="e_0_energy">     -0.00000000 </i>
  </energy>
  <time name="totalsc"> 2352.29 2378.72</time>
  <eigenvalues>
   <array>
    <dimension dim="1">band</dimension>
    <dimension dim="2">kpoint</dimension>
    <dimension dim="3">spin</dimension>
    <field>eigene</field>
    <field>occ</field>
    <set>
     <set comment="spin 1">
      <set comment="kpoint 1">
       <r>  -30.6144    1.0000 </r>
       <r>  -30.6129    1.0000 </r>
       <r>  -30.6111    1.0000 </r>
       <r>  -26.2272    1.0000 </r>
       <r>  -26.2261    1.0000 </r>
       <r>  -26.2246    1.0000 </r>
       <r>  -23.6308    1.0000 </r>
       <r>  -23.4148    1.0000 </r>
       <r>  -23.4129    1.0000 </r>
       <r>  -23.3612    1.0000 </r>
       <r>  -23.1273    1.0000 </r>
       <r>  -23.1263    1.0000 </r>
       <r>  -22.3963    1.0000 </r>
       <r>  -22.3768    1.0000 </r>
       <r>  -22.3760    1.0000 </r>
       <r>  -21.5588    1.0000 </r>
       <r>  -21.4972    1.0000 </r>
       <r>  -21.4961    1.0000 </r>
       <r>  -20.8515    1.0000 </r>
       <r>  -20.6485    1.0000 </r>
       <r>  -20.4720    1.0000 </r>
       <r>  -20.4707    1.0000 </r>
       <r>  -20.3157    1.0000 </r>
       <r>  -20.0986    1.0000 </r>
       <r>  -20.0971    1.0000 </r>
       <r>  -19.7701    1.0000 </r>
       <r>  -19.2008    1.0000 </r>
       <r>  -19.1991    1.0000 </r>
       <r>  -19.1933    1.0000 </r>
       <r>  -19.0847    1.0000 </r>
       <r>  -19.0834    1.0000 </r>
       <r>  -18.6670    1.0000 </r>
       <r>  -18.3214    1.0000 </r>
       <r>  -18.3201    1.0000 </r>
       <r>  -18.1029    1.0000 </r>
       <r>  -18.1018    1.0000 </r>
       <r>  -18.0838    1.0000 </r>
       <r>  -17.9201    1.0000 </r>
       <r>  -17.9196    1.0000 </r>
       <r>  -17.1968    1.0000 </r>
       <r>  -17.1343    1.0000 </r>
       <r>  -17.1335    1.0000 </r>
       <r>  -16.6746    1.0000 </r>
       <r>  -16.5554    1.0000 </r>
       <r>  -16.5536    1.0000 </r>
       <r>  -15.9900    1.0000 </r>
       <r>  -15.9887    1.0000 </r>
       <r>  -15.9852    1.0000 </r>
       <r>  -15.8406    1.0000 </r>
       <r>  -15.8383    1.0000 </r>
       <r>  -15.6747    1.0000 </r>
       <r>  -15.1755    1.0000 </r>
       <r>  -15.1745    1.0000 </r>
       <r>  -15.1714    1.0000 </r>
       <r>  -14.9777    1.0000 </r>
       <r>  -14.9760    1.0000 </r>
       <r>  -14.4781    1.0000 </r>
       <r>  -14.4768    1.0000 </r>
       <r>  -14.4101    1.0000 </r>
       <r>  -14.2292    1.0000 </r>
       <r>  -14.0961    1.0000 </r>
       <r>  -14.0953    1.0000 </r>
       <r>  -13.6807    1.0000 </r>
       <r>  -13.6230    1.0000 </r>
       <r>  -13.6218    1.0000 </r>
       <r>  -13.3810    1.0000 </r>
       <r>  -13.1395    1.0000 </r>
       <r>  -13.1163    1.0000 </r>
       <r>  -13.1157    1.0000 </r>
       <r>  -13.0012    1.0000 </r>
       <r>  -12.9994    1.0000 </r>
       <r>  -12.9032    1.0000 </r>
       <r>  -12.9025    1.0000 </r>
       <r>  -12.8007    1.0000 </r>
       <r>  -12.7259    1.0000 </r>
       <r>  -12.5740    1.0000 </r>
       <r>  -12.5732    1.0000 </r>
       <r>  -12.4686    1.0000 </r>
       <r>  -12.3694    1.0000 </r>
       <r>  -12.3687    1.0000 </r>
       <r>  -12.3067    1.0000 </r>
       <r>  -12.0839    1.0000 </r>
       <r>  -12.0080    1.0000 </r>
       <r>  -12.0075    1.0000 </r>
       <r>  -11.9179    1.0000 </r>
       <r>  -11.8356    1.0000 </r>
       <r>  -11.7546    1.0000 </r>
       <r>  -11.7543    1.0000 </r>
       <r>  -11.6969    1.0000 </r>
       <r>  -11.5958    1.0000 </r>
       <r>  -11.5949    1.0000 </r>
       <r>  -11.4672    1.0000 </r>
       <r>  -11.4130    1.0000 </r>
       <r>  -11.4122    1.0000 </r>
       <r>  -11.3594    1.0000 </r>
       <r>  -11.2844    1.0000 </r>
       <r>  -11.1299    1.0000 </r>
       <r>  -11.1289    1.0000 </r>
       <r>  -11.0526    1.0000 </r>
       <r>  -10.9549    1.0000 </r>
       <r>  -10.9536    1.0000 </r>
       <r>  -10.6693    1.0000 </r>
       <r>  -10.6105    1.0000 </r>
       <r>  -10.6098    1.0000 </r>
       <r>  -10.5011    1.0000 </r>
       <r>  -10.4547    1.0000 </r>
       <r>  -10.4535    1.0000 </r>
       <r>  -10.3421    1.0000 </r>
       <r>  -10.3046    1.0000 </r>
       <r>  -10.3030    1.0000 </r>
       <r>  -10.0751    1.0000 </r>
       <r>  -10.0063    1.0000 </r>
       <r>  -10.0037    1.0000 </r>
       <r>   -9.8709    1.0000 </r>
       <r>   -9.8374    1.0000 </r>
       <r>   -9.8367    1.0000 </r>
       <r>   -9.6709    1.0000 </r>
       <r>   -9.6701    1.0000 </r>
       <r>   -9.6405    1.0000 </r>
       <r>   -9.6176    1.0000 </r>
       <r>   -9.4790    1.0000 </r>
       <r>   -9.4778    1.0000 </r>
       <r>   -9.3192    1.0000 </r>
       <r>   -9.3187    1.0000 </r>
       <r>   -9.2895    1.0000 </r>
       <r>   -9.2824    1.0000 </r>
       <r>   -9.2266    1.0000 </r>
       <r>   -9.2257    1.0000 </r>
       <r>   -9.0780    1.0000 </r>
       <r>   -9.0565    1.0000 </r>
       <r>   -9.0560    1.0000 </r>
       <r>   -8.8795    1.0000 </r>
       <r>   -8.8094    1.0000 </r>
       <r>   -8.8087    1.0000 </r>
       <r>   -8.7822    1.0000 </r>
       <r>   -8.7817    1.0000 </r>
       <r>   -8.6472    1.0000 </r>
       <r>   -8.5626    1.0000 </r>
       <r>   -8.5623    1.0000 </r>
       <r>   -8.2929    1.0000 </r>
       <r>   -8.2018    1.0000 </r>
       <r>   -8.2000    1.0000 </r>
       <r>   -8.0690    1.0000 </r>
       <r>   -8.0685    1.0000 </r>
       <r>   -8.0070    1.0000 </r>
       <r>   -7.9714    1.0000 </r>
       <r>   -7.9578    1.0000 </r>
       <r>   -7.9572    1.0000 </r>
       <r>   -7.6609    1.0000 </r>
       <r>   -7.5427    1.0000 </r>
       <r>   -7.5415    1.0000 </r>
       <r>   -7.4427    1.0000 </r>
       <r>   -7.3696    1.0000 </r>
       <r>   -7.3688    1.0000 </r>
       <r>   -7.1067    1.0000 </r>
       <r>   -7.1055    1.0000 </r>
       <r>   -7.0197    1.0000 </r>
       <r>   -6.9223    1.0000 </r>
       <r>   -6.9145    1.0000 </r>
       <r>   -6.9117    1.0000 </r>
       <r>   -6.8531    1.0000 </r>
       <r>   -6.8509    1.0000 </r>
       <r>   -6.5828    1.0000 </r>
       <r>   -6.4958    1.0000 </r>
       <r>   -6.4925    1.0000 </r>
       <r>   -6.2697    1.0000 </r>
       <r>   -6.2660    1.0000 </r>
       <r>   -6.2646    1.0000 </r>
       <r>   -6.2168    1.0000 </r>
       <r>   -6.2066    1.0000 </r>
       <r>   -6.2060    1.0000 </r>
       <r>   -6.1256    1.0000 </r>
       <r>   -5.8454    1.0000 </r>
       <r>   -5.7847    1.0000 </r>
       <r>   -5.7840    1.0000 </r>
       <r>   -5.5679    1.0000 </r>
       <r>   -5.3000    1.0000 </r>
       <r>   -5.2980    1.0000 </r>
       <r>   -5.0736    1.0000 </r>
       <r>   -5.0723    1.0000 </r>
       <r>   -3.2949    0.0000 </r>
       <r>   -3.2935    0.0000 </r>
       <r>   -3.2673    0.0000 </r>
       <r>   -2.8542    0.0000 </r>
       <r>   -2.8523    0.0000 </r>
       <r>   -2.7521    0.0000 </r>
       <r>   -2.3044    0.0000 </r>
       <r>   -2.3023    0.0000 </r>
       <r>   -2.0687    0.0000 </r>
       <r>   -1.5388    0.0000 </r>
       <r>   -1.5375    0.0000 </r>
       <r>   -1.5342    0.0000 </r>
       <r>   -1.1996    0.0000 </r>
       <r>   -1.1987    0.0000 </r>
       <r>   -1.1860    0.0000 </r>
       <r>   -1.0563    0.0000 </r>
       <r>   -1.0543    0.0000 </r>
       <r>   -0.6816    0.0000 </r>
       <r>   -0.5615    0.0000 </r>
       <r>   -0.5590    0.0000 </r>
       <r>   -0.3977    0.0000 </r>
       <r>   -0.3096    0.0000 </r>
       <r>   -0.3084    0.0000 </r>
       <r>   -0.2073    0.0000 </r>
       <r>   -0.1321    0.0000 </r>
       <r>   -0.1292    0.0000 </r>
       <r>   -0.0169    0.0000 </r>
       <r>   -0.0059    0.0000 </r>
       <r>   -0.0056    0.0000 </r>
       <r>    0.1479    0.0000 </r>
       <r>    0.1843    0.0000 </r>
       <r>    0.1854    0.0000 </r>
       <r>    0.2435    0.0000 </r>
       <r>    0.2447    0.0000 </r>
       <r>    0.2527    0.0000 </r>
       <r>    0.2890    0.0000 </r>
       <r>    0.3480    0.0000 </r>
       <r>    0.3488    0.0000 </r>
       <r>    0.4038    0.0000 </r>
       <r>    0.4603    0.0000 </r>
       <r>    0.4619    0.0000 </r>
       <r>    0.4853    0.0000 </r>
       <r>    0.5334    0.0000 </r>
       <r>    0.5711    0.0000 </r>
       <r>    0.5727    0.0000 </r>
       <r>    0.6842    0.0000 </r>
       <r>    0.6986    0.0000 </r>
       <r>    0.7000    0.0000 </r>
       <r>    0.7135    0.0000 </r>
       <r>    0.7158    0.0000 </r>
       <r>    0.7626    0.0000 </r>
       <r>    0.7763    0.0000 </r>
       <r>    0.7785    0.0000 </r>
       <r>    0.7998    0.0000 </r>
       <r>    0.8653    0.0000 </r>
       <r>    0.8661    0.0000 </r>
       <r>    0.8724    0.0000 </r>
       <r>    0.8859    0.0000 </r>
       <r>    0.9311    0.0000 </r>
       <r>    0.9367    0.0000 </r>
      </set>
      <set comment="kpoint 2">
       <r>  -30.6144    1.0000 </r>
       <r>  -30.6129    1.0000 </r>
       <r>  -30.6111    1.0000 </r>
       <r>  -26.2272    1.0000 </r>
       <r>  -26.2261    1.0000 </r>
       <r>  -26.2246    1.0000 </r>
       <r>  -23.6308    1.0000 </r>
       <r>  -23.4148    1.0000 </r>
       <r>  -23.4129    1.0000 </r>
       <r>  -23.3612    1.0000 </r>
       <r>  -23.1273    1.0000 </r>
       <r>  -23.1263    1.0000 </r>
       <r>  -22.3963    1.0000 </r>
       <r>  -22.3768    1.0000 </r>
       <r>  -22.3760    1.0000 </r>
       <r>  -21.5588    1.0000 </r>
       <r>  -21.4972    1.0000 </r>
       <r>  -21.4962    1.0000 </r>
       <r>  -20.8513    1.0000 </r>
       <r>  -20.6488    1.0000 </r>
       <r>  -20.4720    1.0000 </r>
       <r>  -20.4706    1.0000 </r>
       <r>  -20.3158    1.0000 </r>
       <r>  -20.0985    1.0000 </r>
       <r>  -20.0968    1.0000 </r>
       <r>  -19.7706    1.0000 </r>
       <r>  -19.2008    1.0000 </r>
       <r>  -19.1991    1.0000 </r>
       <r>  -19.1933    1.0000 </r>
       <r>  -19.0845    1.0000 </r>
       <r>  -19.0830    1.0000 </r>
       <r>  -18.6679    1.0000 </r>
       <r>  -18.3210    1.0000 </r>
       <r>  -18.3197    1.0000 </r>
       <r>  -18.1029    1.0000 </r>
       <r>  -18.1018    1.0000 </r>
       <r>  -18.0837    1.0000 </r>
       <r>  -17.9202    1.0000 </r>
       <r>  -17.9198    1.0000 </r>
       <r>  -17.1968    1.0000 </r>
       <r>  -17.1344    1.0000 </r>
       <r>  -17.1336    1.0000 </r>
       <r>  -16.6743    1.0000 </r>
       <r>  -16.5554    1.0000 </r>
       <r>  -16.5538    1.0000 </r>
       <r>  -15.9900    1.0000 </r>
       <r>  -15.9887    1.0000 </r>
       <r>  -15.9852    1.0000 </r>
       <r>  -15.8406    1.0000 </r>
       <r>  -15.8381    1.0000 </r>
       <r>  -15.6751    1.0000 </r>
       <r>  -15.1755    1.0000 </r>
       <r>  -15.1745    1.0000 </r>
       <r>  -15.1714    1.0000 </r>
       <r>  -14.9777    1.0000 </r>
       <r>  -14.9755    1.0000 </r>
       <r>  -14.4798    1.0000 </r>
       <r>  -14.4777    1.0000 </r>
       <r>  -14.4080    1.0000 </r>
       <r>  -14.2292    1.0000 </r>
       <r>  -14.0960    1.0000 </r>
       <r>  -14.0949    1.0000 </r>
       <r>  -13.6815    1.0000 </r>
       <r>  -13.6229    1.0000 </r>
       <r>  -13.6214    1.0000 </r>
       <r>  -13.3810    1.0000 </r>
       <r>  -13.1395    1.0000 </r>
       <r>  -13.1163    1.0000 </r>
       <r>  -13.1157    1.0000 </r>
       <r>  -13.0012    1.0000 </r>
       <r>  -12.9994    1.0000 </r>
       <r>  -12.9034    1.0000 </r>
       <r>  -12.9026    1.0000 </r>
       <r>  -12.8004    1.0000 </r>
       <r>  -12.7259    1.0000 </r>
       <r>  -12.5740    1.0000 </r>
       <r>  -12.5731    1.0000 </r>
       <r>  -12.4687    1.0000 </r>
       <r>  -12.3693    1.0000 </r>
       <r>  -12.3687    1.0000 </r>
       <r>  -12.3067    1.0000 </r>
       <r>  -12.0837    1.0000 </r>
       <r>  -12.0079    1.0000 </r>
       <r>  -12.0074    1.0000 </r>
       <r>  -11.9180    1.0000 </r>
       <r>  -11.8363    1.0000 </r>
       <r>  -11.7551    1.0000 </r>
       <r>  -11.7544    1.0000 </r>
       <r>  -11.6964    1.0000 </r>
       <r>  -11.5955    1.0000 </r>
       <r>  -11.5945    1.0000 </r>
       <r>  -11.4672    1.0000 </r>
       <r>  -11.4130    1.0000 </r>
       <r>  -11.4123    1.0000 </r>
       <r>  -11.3591    1.0000 </r>
       <r>  -11.2846    1.0000 </r>
       <r>  -11.1300    1.0000 </r>
       <r>  -11.1292    1.0000 </r>
       <r>  -11.0525    1.0000 </r>
       <r>  -10.9549    1.0000 </r>
       <r>  -10.9536    1.0000 </r>
       <r>  -10.6692    1.0000 </r>
       <r>  -10.6105    1.0000 </r>
       <r>  -10.6099    1.0000 </r>
       <r>  -10.5010    1.0000 </r>
       <r>  -10.4548    1.0000 </r>
       <r>  -10.4536    1.0000 </r>
       <r>  -10.3420    1.0000 </r>
       <r>  -10.3046    1.0000 </r>
       <r>  -10.3030    1.0000 </r>
       <r>  -10.0749    1.0000 </r>
       <r>  -10.0063    1.0000 </r>
       <r>  -10.0038    1.0000 </r>
       <r>   -9.8710    1.0000 </r>
       <r>   -9.8373    1.0000 </r>
       <r>   -9.8367    1.0000 </r>
       <r>   -9.6709    1.0000 </r>
       <r>   -9.6701    1.0000 </r>
       <r>   -9.6404    1.0000 </r>
       <r>   -9.6175    1.0000 </r>
       <r>   -9.4791    1.0000 </r>
       <r>   -9.4781    1.0000 </r>
       <r>   -9.3192    1.0000 </r>
       <r>   -9.3187    1.0000 </r>
       <r>   -9.2892    1.0000 </r>
       <r>   -9.2825    1.0000 </r>
       <r>   -9.2265    1.0000 </r>
       <r>   -9.2255    1.0000 </r>
       <r>   -9.0787    1.0000 </r>
       <r>   -9.0565    1.0000 </r>
       <r>   -9.0555    1.0000 </r>
       <r>   -8.8798    1.0000 </r>
       <r>   -8.8095    1.0000 </r>
       <r>   -8.8085    1.0000 </r>
       <r>   -8.7820    1.0000 </r>
       <r>   -8.7814    1.0000 </r>
       <r>   -8.6473    1.0000 </r>
       <r>   -8.5627    1.0000 </r>
       <r>   -8.5622    1.0000 </r>
       <r>   -8.2950    1.0000 </r>
       <r>   -8.2011    1.0000 </r>
       <r>   -8.1985    1.0000 </r>
       <r>   -8.0689    1.0000 </r>
       <r>   -8.0685    1.0000 </r>
       <r>   -8.0070    1.0000 </r>
       <r>   -7.9715    1.0000 </r>
       <r>   -7.9578    1.0000 </r>
       <r>   -7.9571    1.0000 </r>
       <r>   -7.6616    1.0000 </r>
       <r>   -7.5427    1.0000 </r>
       <r>   -7.5415    1.0000 </r>
       <r>   -7.4435    1.0000 </r>
       <r>   -7.3692    1.0000 </r>
       <r>   -7.3679    1.0000 </r>
       <r>   -7.1067    1.0000 </r>
       <r>   -7.1056    1.0000 </r>
       <r>   -7.0196    1.0000 </r>
       <r>   -6.9224    1.0000 </r>
       <r>   -6.9145    1.0000 </r>
       <r>   -6.9117    1.0000 </r>
       <r>   -6.8531    1.0000 </r>
       <r>   -6.8510    1.0000 </r>
       <r>   -6.5831    1.0000 </r>
       <r>   -6.4957    1.0000 </r>
       <r>   -6.4923    1.0000 </r>
       <r>   -6.2697    1.0000 </r>
       <r>   -6.2660    1.0000 </r>
       <r>   -6.2646    1.0000 </r>
       <r>   -6.2168    1.0000 </r>
       <r>   -6.2066    1.0000 </r>
       <r>   -6.2060    1.0000 </r>
       <r>   -6.1256    1.0000 </r>
       <r>   -5.8454    1.0000 </r>
       <r>   -5.7847    1.0000 </r>
       <r>   -5.7838    1.0000 </r>
       <r>   -5.5683    1.0000 </r>
       <r>   -5.2999    1.0000 </r>
       <r>   -5.2979    1.0000 </r>
       <r>   -5.0736    1.0000 </r>
       <r>   -5.0723    1.0000 </r>
       <r>   -3.2949    0.0000 </r>
       <r>   -3.2935    0.0000 </r>
       <r>   -3.2674    0.0000 </r>
       <r>   -2.8542    0.0000 </r>
       <r>   -2.8522    0.0000 </r>
       <r>   -2.7523    0.0000 </r>
       <r>   -2.3044    0.0000 </r>
[...]
       <r>   -25.9398     0.0000    12.0000 </r>
       <r>   -25.8240     0.0000    12.0000 </r>
       <r>   -25.7082     0.0000    12.0000 </r>
       <r>   -25.5924     0.0000    12.0000 </r>
       <r>   -25.4766     0.0000    12.0000 </r>
       <r>   -25.3608     0.0000    12.0000 </r>
       <r>   -25.2449     0.0000    12.0000 </r>
       <r>   -25.1291     0.0000    12.0000 </r>
       <r>   -25.0133     0.0000    12.0000 </r>
       <r>   -24.8975     0.0000    12.0000 </r>
       <r>   -24.7817     0.0000    12.0000 </r>
       <r>   -24.6659     0.0000    12.0000 </r>
       <r>   -24.5501     0.0000    12.0000 </r>
       <r>   -24.4343     0.0000    12.0000 </r>
       <r>   -24.3185     0.0000    12.0000 </r>
       <r>   -24.2026     0.0000    12.0000 </r>
       <r>   -24.0868     0.0000    12.0000 </r>
       <r>   -23.9710     0.0000    12.0000 </r>
       <r>   -23.8552     0.0000    12.0000 </r>
       <r>   -23.7394     0.0000    12.0000 </r>
       <r>   -23.6236    14.6008    13.6909 </r>
       <r>   -23.5078     0.0000    14.0000 </r>
       <r>   -23.3920    34.5023    17.9958 </r>
       <r>   -23.2761     0.0000    20.0000 </r>
       <r>   -23.1603     0.0000    20.0000 </r>
       <r>   -23.0445     0.0000    24.0000 </r>
       <r>   -22.9287     0.0000    24.0000 </r>
       <r>   -22.8129     0.0000    24.0000 </r>
       <r>   -22.6971     0.0000    24.0000 </r>
       <r>   -22.5813     0.0000    24.0000 </r>
       <r>   -22.4655     0.0000    24.0000 </r>
       <r>   -22.3497    51.8065    29.9998 </r>
       <r>   -22.2338     0.0000    30.0000 </r>
       <r>   -22.1180     0.0000    30.0000 </r>
       <r>   -22.0022     0.0000    30.0000 </r>
       <r>   -21.8864     0.0000    30.0000 </r>
       <r>   -21.7706     0.0000    30.0000 </r>
       <r>   -21.6548     0.0000    30.0000 </r>
       <r>   -21.5390    11.7921    31.3657 </r>
       <r>   -21.4232    21.8747    36.0000 </r>
       <r>   -21.3074     0.0000    36.0000 </r>
       <r>   -21.1915     0.0000    36.0000 </r>
       <r>   -21.0757     0.0000    36.0000 </r>
       <r>   -20.9599     0.0000    36.0000 </r>
       <r>   -20.8441     3.6383    36.4214 </r>
       <r>   -20.7283     0.0000    38.0000 </r>
       <r>   -20.6125    15.2547    40.0000 </r>
       <r>   -20.4967     0.0045    40.0005 </r>
       <r>   -20.3809     0.0000    44.0000 </r>
       <r>   -20.2651    17.2695    46.0000 </r>
       <r>   -20.1492     0.0000    46.0000 </r>
       <r>   -20.0334    25.3787    48.9391 </r>
       <r>   -19.9176     0.0000    50.0000 </r>
       <r>   -19.8018    12.1027    51.4016 </r>
       <r>   -19.6860     0.0000    52.0000 </r>
       <r>   -19.5702     0.0000    52.0000 </r>
       <r>   -19.4544     0.0000    52.0000 </r>
       <r>   -19.3386     0.0000    52.0000 </r>
       <r>   -19.2228     0.0247    52.0029 </r>
       <r>   -19.1069     0.0109    58.0013 </r>
       <r>   -18.9911     5.2189    60.9377 </r>
       <r>   -18.8753     3.1661    62.0000 </r>
       <r>   -18.7595     9.1486    63.2262 </r>
       <r>   -18.6437     4.8925    63.9999 </r>
       <r>   -18.5279     0.0000    64.0000 </r>
       <r>   -18.4121     0.0000    64.0000 </r>
       <r>   -18.2963    20.9793    66.4296 </r>
       <r>   -18.1804    10.9373    68.0000 </r>
       <r>   -18.0646    44.4640    73.1494 </r>
       <r>   -17.9488    11.1901    75.2959 </r>
       <r>   -17.8330     0.0000    78.0000 </r>
       <r>   -17.7172     0.0000    78.0000 </r>
       <r>   -17.6014     0.0000    78.0000 </r>
       <r>   -17.4856     0.0000    78.0000 </r>
       <r>   -17.3698     0.0000    78.0000 </r>
       <r>   -17.2540     0.0000    78.0000 </r>
       <r>   -17.1381    33.7294    81.9062 </r>
       <r>   -17.0223     0.0000    84.0000 </r>
       <r>   -16.9065     0.0000    84.0000 </r>
       <r>   -16.7907     0.0000    84.0000 </r>
       <r>   -16.6749     1.3572    84.1572 </r>
       <r>   -16.5591    27.5761    88.1603 </r>
       <r>   -16.4433     0.0000    90.0000 </r>
       <r>   -16.3275     0.0000    90.0000 </r>
       <r>   -16.2117     0.0000    90.0000 </r>
       <r>   -16.0958     0.0000    90.0000 </r>
       <r>   -15.9800    45.2548    95.2410 </r>
       <r>   -15.8642     0.0032    96.0004 </r>
       <r>   -15.7484    17.7053   100.5505 </r>
       <r>   -15.6326     6.3321   102.0000 </r>
       <r>   -15.5168     0.0000   102.0000 </r>
       <r>   -15.4010     0.0000   102.0000 </r>
       <r>   -15.2852     0.0000   102.0000 </r>
       <r>   -15.1694    36.9908   106.2840 </r>
       <r>   -15.0535     0.0000   108.0000 </r>
       <r>   -14.9377    22.1426   110.5644 </r>
       <r>   -14.8219    10.2760   111.9901 </r>
       <r>   -14.7061     2.7104   112.3139 </r>
       <r>   -14.5903     3.4186   113.3626 </r>
       <r>   -14.4745    16.6330   115.4263 </r>
       <r>   -14.3587     4.5457   116.5264 </r>
       <r>   -14.2429     4.5222   118.0571 </r>
       <r>   -14.1271     0.0000   120.0000 </r>
       <r>   -14.0112    14.1934   123.8771 </r>
       <r>   -13.8954     0.0000   124.0000 </r>
       <r>   -13.7796     0.3886   124.0450 </r>
       <r>   -13.6638     7.1859   125.9989 </r>
       <r>   -13.5480    34.5389   130.0000 </r>
       <r>   -13.4322     0.0000   130.0000 </r>
       <r>   -13.3164    17.2695   132.0000 </r>
       <r>   -13.2006     0.0000   132.0000 </r>
       <r>   -13.0847    51.8080   138.0000 </r>
       <r>   -12.9689    34.5680   142.0034 </r>
       <r>   -12.8531    24.1772   146.0000 </r>
       <r>   -12.7373    18.1401   148.1008 </r>
       <r>   -12.6215     0.0000   150.0000 </r>
       <r>   -12.5057    34.5486   154.0011 </r>
       <r>   -12.3899     2.3376   156.0041 </r>
       <r>   -12.2741    17.2694   162.0000 </r>
       <r>   -12.1583     0.0000   162.0000 </r>
       <r>   -12.0424    12.9198   163.4963 </r>
       <r>   -11.9266    42.0385   169.5685 </r>
       <r>   -11.8108     8.0937   172.1707 </r>
       <r>   -11.6950    18.3147   176.1544 </r>
       <r>   -11.5792    13.0733   179.1807 </r>
       <r>   -11.4634    26.5101   183.8368 </r>
       <r>   -11.3476    38.2940   188.4349 </r>
       <r>   -11.2318    17.2695   192.0000 </r>
       <r>   -11.1160    34.3635   195.9797 </r>
       <r>   -11.0001    17.2695   198.0000 </r>
       <r>   -10.8843    34.5389   202.0000 </r>
       <r>   -10.7685     0.0000   202.0000 </r>
       <r>   -10.6527    12.8646   203.4899 </r>
       <r>   -10.5369    24.1772   208.0000 </r>
       <r>   -10.4211    51.2327   214.0000 </r>
       <r>   -10.3053    39.0992   218.5281 </r>
       <r>   -10.1895     0.0000   220.0000 </r>
       <r>   -10.0737     1.8714   220.2167 </r>
       <r>    -9.9578    37.1293   226.0000 </r>
       <r>    -9.8420    23.5114   228.7229 </r>
       <r>    -9.7262     0.0000   232.0000 </r>
       <r>    -9.6104    56.7833   238.5761 </r>
       <r>    -9.4946    13.7835   241.5963 </r>
       <r>    -9.3788     0.0000   244.0000 </r>
       <r>    -9.2630    57.6815   250.6802 </r>
       <r>    -9.1472    35.0476   256.0589 </r>
       <r>    -9.0314    37.1931   261.6741 </r>
       <r>    -8.9155     1.7919   262.2075 </r>
       <r>    -8.7997    28.5496   267.2397 </r>
       <r>    -8.6839    17.2719   272.0003 </r>
       <r>    -8.5681    10.0054   274.8587 </r>
       <r>    -8.4523    15.4471   278.8556 </r>
       <r>    -8.3365     3.6753   279.6256 </r>
       <r>    -8.2207     1.1807   280.0034 </r>
       <r>    -8.1049     4.3227   282.7006 </r>
       <r>    -7.9890    41.8995   288.8524 </r>
       <r>    -7.8732    10.3617   296.0000 </r>
       <r>    -7.7574     9.5708   297.1084 </r>
       <r>    -7.6416     5.7528   297.9996 </r>
       <r>    -7.5258    33.7070   301.9037 </r>
       <r>    -7.4100    17.2695   304.0000 </r>
       <r>    -7.2942    23.2215   306.6893 </r>
       <r>    -7.1784     8.3469   308.0000 </r>
       <r>    -7.0626    34.5389   312.0000 </r>
       <r>    -6.9467    25.4018   314.9418 </r>
       <r>    -6.8309    47.1766   323.9969 </r>
       <r>    -6.7151     0.0000   324.0000 </r>
       <r>    -6.5993    11.6712   325.3517 </r>
       <r>    -6.4835    20.0264   328.3193 </r>
       <r>    -6.3677     0.0000   330.0000 </r>
       <r>    -6.2519    50.4973   335.8482 </r>
       <r>    -6.1361    35.7808   342.1438 </r>
       <r>    -6.0203     0.0000   344.0000 </r>
       <r>    -5.9044     0.0000   344.0000 </r>
       <r>    -5.7886    22.8252   346.6434 </r>
       <r>    -5.6728    10.3625   350.0001 </r>
       <r>    -5.5570    10.8366   351.9883 </r>
       <r>    -5.4412     0.0000   352.0000 </r>
       <r>    -5.3254     0.0020   352.0002 </r>
       <r>    -5.2096    13.2399   356.0000 </r>
       <r>    -5.0938     0.3890   356.0451 </r>
       <r>    -4.9780     0.0000   360.0000 </r>
       <r>    -4.8621     0.0000   360.0000 </r>
       <r>    -4.7463     0.0000   360.0000 </r>
       <r>    -4.6305     0.0000   360.0000 </r>
       <r>    -4.5147     0.0000   360.0000 </r>
       <r>    -4.3989     0.0000   360.0000 </r>
       <r>    -4.2831     0.0000   360.0000 </r>
       <r>    -4.1673     0.0000   360.0000 </r>
       <r>    -4.0515     0.0000   360.0000 </r>
       <r>    -3.9357     0.0000   360.0000 </r>
       <r>    -3.8198     0.0000   360.0000 </r>
       <r>    -3.7040     0.0000   360.0000 </r>
       <r>    -3.5882     0.0000   360.0000 </r>
       <r>    -3.4724     0.0000   360.0000 </r>
       <r>    -3.3566     0.0000   360.0000 </r>
       <r>    -3.2408    51.8081   366.0000 </r>
       <r>    -3.1250     0.0000   366.0000 </r>
       <r>    -3.0092     0.0000   366.0000 </r>
       <r>    -2.8933     0.0000   366.0000 </r>
       <r>    -2.7775    44.3566   371.1370 </r>
       <r>    -2.6617     0.0000   372.0000 </r>
       <r>    -2.5459     0.0000   372.0000 </r>
       <r>    -2.4301     0.0000   372.0000 </r>
       <r>    -2.3143     1.3716   372.1589 </r>
       <r>    -2.1985    11.7285   375.9250 </r>
       <r>    -2.0827    12.1797   377.5772 </r>
       <r>    -1.9669     0.0000   378.0000 </r>
       <r>    -1.8510     0.0000   378.0000 </r>
       <r>    -1.7352     0.0000   378.0000 </r>
       <r>    -1.6194     0.0000   378.0000 </r>
       <r>    -1.5036    51.8083   384.0000 </r>
       <r>    -1.3878     0.0000   384.0000 </r>
       <r>    -1.2720     0.0000   384.0000 </r>
       <r>    -1.1562    51.8080   390.0000 </r>
       <r>    -1.0404    20.3623   392.3582 </r>
       <r>    -0.9246    10.3248   393.9291 </r>
       <r>    -0.8087     8.3673   395.1690 </r>
       <r>    -0.6929     3.8163   395.8086 </r>
       <r>    -0.5771     0.1332   396.0154 </r>
       <r>    -0.4613     4.4768   398.7851 </r>
       <r>    -0.3455    23.4722   402.1850 </r>
       <r>    -0.2297     9.1190   406.1561 </r>
       <r>    -0.1139    34.6736   411.9823 </r>
       <r>     0.0019    24.0249   414.7824 </r>
       <r>     0.1177    22.1336   419.3633 </r>
       <r>     0.2336    42.9755   426.2771 </r>
       <r>     0.3494    30.0699   433.0491 </r>
       <r>     0.4652    31.4063   439.2705 </r>
       <r>     0.5810    53.1352   448.6537 </r>
       <r>     0.6968    34.5716   455.0371 </r>
       <r>     0.8126    50.3775   465.8343 </r>
       <r>     0.9284    66.8335   476.8068 </r>
       <r>     1.0442     6.3321   480.0000 </r>
       <r>     1.1600     0.0000   480.0000 </r>
       <r>     1.2759     0.0000   480.0000 </r>
       <r>     1.3917     0.0000   480.0000 </r>
       <r>     1.5075     0.0000   480.0000 </r>
       <r>     1.6233     0.0000   480.0000 </r>
       <r>     1.7391     0.0000   480.0000 </r>
       <r>     1.8549     0.0000   480.0000 </r>
       <r>     1.9707     0.0000   480.0000 </r>
       <r>     2.0865     0.0000   480.0000 </r>
       <r>     2.2024     0.0000   480.0000 </r>
       <r>     2.3182     0.0000   480.0000 </r>
       <r>     2.4340     0.0000   480.0000 </r>
       <r>     2.5498     0.0000   480.0000 </r>
      </set>
     </set>
    </array>
   </total>
  </dos>
 </calculation>
 <structure name="finalpos" >
  <crystal>
   <varray name="basis" >
    <v>      29.67932897       0.01792660       0.00000000 </v>
    <v>     -14.82416650      25.69582280       0.00000000 </v>
    <v>       0.00000000       0.00000000      20.00000000 </v>
   </varray>
   <i name="volume">  15258.01049727 </i>
   <varray name="rec_basis" >
    <v>       0.03368175       0.01943132       0.00000000 </v>
    <v>      -0.00002350       0.03890328       0.00000000 </v>
    <v>       0.00000000       0.00000000       0.05000000 </v>
   </varray>
  </crystal>
  <varray name="positions" >
   <v>       0.35363785       0.72070330       0.49101513 </v>
   <v>       0.29949883       0.68698442       0.49059474 </v>
   <v>       0.27932241       0.63302515       0.49096132 </v>
   <v>       0.31307213       0.61258118       0.49050082 </v>
   <v>       0.36699513       0.64629855       0.49098558 </v>
   <v>       0.38738399       0.70047023       0.49062324 </v>
   <v>       0.64550639       0.27897418       0.51164877 </v>
   <v>       0.69976759       0.31183246       0.51205829 </v>
   <v>       0.72134847       0.36609095       0.51167987 </v>
   <v>       0.68846282       0.38752617       0.51238004 </v>
   <v>       0.63423286       0.35491178       0.51195391 </v>
   <v>       0.61286453       0.30061870       0.51233952 </v>
   <v>       0.42934904       0.86140603       0.52708265 </v>
   <v>       0.45441146       0.89199524       0.58309939 </v>
   <v>       0.47617999       0.94568501       0.57938635 </v>
   <v>       0.47787564       0.97181046       0.51969045 </v>
   <v>       0.50695360       0.02859717       0.51066429 </v>
   <v>       0.55179819       0.06150680       0.54818117 </v>
   <v>       0.57783979       0.11487527       0.53909613 </v>
   <v>       0.40530410       0.80477484       0.53146950 </v>
   <v>       0.43173907       0.57026921       0.52716079 </v>
   <v>       0.43714138       0.54507800       0.58318131 </v>
   <v>       0.46929749       0.52354023       0.57963351 </v>
   <v>       0.49389863       0.52200933       0.52004054 </v>
   <v>       0.52180135       0.49308152       0.51119050 </v>
   <v>       0.50988908       0.44814387       0.54857301 </v>
   <v>       0.53742218       0.42226821       0.53962919 </v>
   <v>       0.39912898       0.59433558       0.53136147 </v>
   <v>       0.13867547       0.56833169       0.52688675 </v>
   <v>       0.10802530       0.56291012       0.58282587 </v>
   <v>       0.05438699       0.53083977       0.57911914 </v>
   <v>       0.02840090       0.50630055       0.51942605 </v>
   <v>       0.97164956       0.47850574       0.51036487 </v>
   <v>       0.93864806       0.49053289       0.54760677 </v>
   <v>       0.88530605       0.46303503       0.53861174 </v>
   <v>       0.19527492       0.60090988       0.53126238 </v>
   <v>       0.45113375       0.94000595       0.46379815 </v>
   <v>       0.42717147       0.88612103       0.46817944 </v>
   <v>       0.55995086       0.13730300       0.49152007 </v>
   <v>       0.51670683       0.10449874       0.45199680 </v>
   <v>       0.49045974       0.05065043       0.46025110 </v>
   <v>       0.44556325       0.01476432       0.41614454 </v>
   <v>       0.44960349       0.96640867       0.40007105 </v>
   <v>       0.58515190       0.19363302       0.48295632 </v>
   <v>       0.48889585       0.54879875       0.46412840 </v>
   <v>       0.45887118       0.57267657       0.46840236 </v>
   <v>       0.57790328       0.44042836       0.49232100 </v>
   <v>       0.58833911       0.48377823       0.45295580 </v>
   <v>       0.56055000       0.50986496       0.46107525 </v>
   <v>       0.56952992       0.55484391       0.41708994 </v>
   <v>       0.51711211       0.55055094       0.40058880 </v>
   <v>       0.60917017       0.41536011       0.48370662 </v>
   <v>       0.06025697       0.51129561       0.46361501 </v>
   <v>       0.11409129       0.54128091       0.46804243 </v>
   <v>       0.86302802       0.42249001       0.49136947 </v>
   <v>       0.89592614       0.41202425       0.45201614 </v>
   <v>       0.94974507       0.43977752       0.46019852 </v>
   <v>       0.98575934       0.43076715       0.41628851 </v>
   <v>       0.03392669       0.48317513       0.39998491 </v>
   <v>       0.80673691       0.39119577       0.48288436 </v>
   <v>       0.29702641       0.57061706       0.48768095 </v>
   <v>       0.42932769       0.72637137       0.48792083 </v>
   <v>       0.27359356       0.70306654       0.48786921 </v>
   <v>       0.70575059       0.42958642       0.51666710 </v>
   <v>       0.57082629       0.27586728       0.51662518 </v>
   <v>       0.72453426       0.29450844       0.51610835 </v>
   <v>       0.56699494       0.04504772       0.58445466 </v>
   <v>       0.61223392       0.14029705       0.56850066 </v>
   <v>       0.45561680       0.87434990       0.63041003 </v>
   <v>       0.41628565       0.78944304       0.57513679 </v>
   <v>       0.47808376       0.43273577       0.58459137 </v>
   <v>       0.52845813       0.38778734       0.56889490 </v>
   <v>       0.41801651       0.54360856       0.63034977 </v>
   <v>       0.37255292       0.58314911       0.57475624 </v>
   <v>       0.95502224       0.52239508       0.58356068 </v>
   <v>       0.85980693       0.47206464       0.56780762 </v>
   <v>       0.12558370       0.58196129       0.63006485 </v>
   <v>       0.21058183       0.62742893       0.57472969 </v>
   <v>       0.40657698       0.86191681       0.42514513 </v>
   <v>       0.50345308       0.12155190       0.41368977 </v>
   <v>       0.40833307       0.00278687       0.44187105 </v>
   <v>       0.44553131       0.03498977       0.37012118 </v>
   <v>       0.41689575       0.93883817       0.36888873 </v>
   <v>       0.48549190       0.97817809       0.37109613 </v>
   <v>       0.56690154       0.20773682       0.44651648 </v>
   <v>       0.45538183       0.59339246       0.42539782 </v>
   <v>       0.61878164       0.49722570       0.41486117 </v>
   <v>       0.59444493       0.59205043       0.44305904 </v>
   <v>       0.59008605       0.55512020       0.37125181 </v>
   <v>       0.52216976       0.58324581       0.36937742 </v>
   <v>       0.49329761       0.51463793       0.37151365 </v>
   <v>       0.64154094       0.43378457       0.44735404 </v>
   <v>       0.13835808       0.54482851       0.42510972 </v>
   <v>       0.87896252       0.38156800       0.41392654 </v>
   <v>       0.99794276       0.40573959       0.44226044 </v>
   <v>       0.96559110       0.41031144       0.37035667 </v>
   <v>       0.06157255       0.47806657       0.36887322 </v>
   <v>       0.02195984       0.50710375       0.37085529 </v>
   <v>       0.79275882       0.35891075       0.44636144 </v>
   <v>       0.52169349       0.96331214       0.67972042 </v>
   <v>       0.47764606       0.00345513       0.65890570 </v>
   <v>       0.44164748       0.47781811       0.67987079 </v>
   <v>       0.52575007       0.52247934       0.65924916 </v>
   <v>       0.03650335       0.55863167       0.67938973 </v>
   <v>       0.99651809       0.47450308       0.65849638 </v>
   <v>       0.37275123       0.77440665       0.48759193 </v>
   <v>       0.22565260       0.59844602       0.48760174 </v>
   <v>       0.40159960       0.62717734       0.48766840 </v>
   <v>       0.62600140       0.22530593       0.51607830 </v>
   <v>       0.77497880       0.40020911       0.51613203 </v>
   <v>       0.60005318       0.37440874       0.51659964 </v>
   <v>       0.49373111       0.97347662       0.64393783 </v>
   <v>       0.47968027       0.50606870       0.64419389 </v>
   <v>       0.02646149       0.52054285       0.64359885 </v>
  </varray>
 </structure>
</modeling>
