<?xml version="1.0" encoding="ISO-8859-1"?>
<modeling>
 <generator>
  <i name="program" type="string">vasp </i>
  <i name="version" type="string">5.4.4.18Apr17-6-g9f103f2a35  </i>
  <i name="subversion" type="string">(build Jun 07 2020 16:50:00) complex            parallel </i>
  <i name="platform" type="string">LinuxIFC </i>
  <i name="date" type="string">2023 03 01 </i>
  <i name="time" type="string">13:08:54 </i>
 </generator>
 <incar>
  <i type="string" name="SYSTEM">Simulation for cell shape cell volume r</i>
  <i type="int" name="ISTART">     1</i>
  <i type="string" name="PREC">high</i>
  <i type="string" name="ALGO">48</i>
  <i type="int" name="ICHARG">    11</i>
  <i type="int" name="NELM">   200</i>
  <i type="int" name="IBRION">    -1</i>
  <i name="EDIFF">      0.00001000</i>
  <i name="EDIFFG">     -0.01000000</i>
  <i type="int" name="NSW">     0</i>
  <i type="int" name="ISIF">     2</i>
  <i name="ENCUT">    500.00000000</i>
  <i name="POTIM">      0.30000000</i>
  <i type="string" name="LREAL">A</i>
  <i type="int" name="ISMEAR">     0</i>
  <i name="SIGMA">      0.01000000</i>
  <i type="int" name="NWRITE">     0</i>
  <i type="logical" name="LWAVE"> F  </i>
  <i type="logical" name="LCHARG"> F  </i>
  <v type="int" name="KPOINT_BSE">    -1     0     0     0</v>
  <i type="int" name="NELM">   200</i>
  <i type="string" name="GGA">PE</i>
 </incar>
 <structure name="primitive_cell" >
  <crystal>
   <varray name="basis" >
    <v>      25.43453053      -0.00745113       0.00000000 </v>
    <v>      -0.02341262      25.38494059       0.00000000 </v>
    <v>       0.00000000       0.00000000      20.00000000 </v>
   </varray>
   <i name="volume">  12913.07744064 </i>
   <varray name="rec_basis" >
    <v>       0.03931664       0.00003626       0.00000000 </v>
    <v>       0.00001154       0.03939345       0.00000000 </v>
    <v>       0.00000000       0.00000000       0.05000000 </v>
   </varray>
  </crystal>
  <varray name="positions" >
   <v>       0.21647771      -0.03577662       0.46308820 </v>
   <v>       0.19711271      -0.05165633       0.41875725 </v>
   <v>       0.27095596      -0.03481325       0.46704522 </v>
   <v>       0.18532756      -0.01598292      -0.48440957 </v>
   <v>       0.29522221      -0.04970941       0.42628710 </v>
   <v>       0.21034691       0.00453177      -0.42751055 </v>
   <v>       0.29611367      -0.01411082      -0.47590580 </v>
   <v>       0.12685276      -0.01629528      -0.48987789 </v>
   <v>       0.16992245      -0.12016309      -0.47115497 </v>
   <v>       0.26500936       0.00529514      -0.42324331 </v>
   <v>       0.10049167      -0.06517019      -0.48627226 </v>
   <v>       0.12775987      -0.11509641      -0.47659475 </v>
   <v>       0.18650266       0.01965463      -0.38645105 </v>
   <v>       0.10275194       0.03291434      -0.49927900 </v>
   <v>       0.17030733       0.08940754       0.49961722 </v>
   <v>       0.35317484      -0.01214773      -0.47038178 </v>
   <v>       0.12818225       0.08330179       0.49613435 </v>
   <v>       0.28415224       0.02115019      -0.37866872 </v>
   <v>       0.38354468      -0.02722605       0.48145075 </v>
   <v>       0.04719949      -0.07263703      -0.49081575 </v>
   <v>       0.09001458      -0.15304917      -0.47621203 </v>
   <v>       0.36951885       0.00319402      -0.42309785 </v>
   <v>       0.04976336       0.04171004       0.49301026 </v>
   <v>       0.09001754       0.12081676       0.48662245 </v>
   <v>       0.02175647       0.01288159       0.49360232 </v>
   <v>       0.03989296      -0.12591037      -0.48476441 </v>
   <v>       0.09536862      -0.19527198      -0.47111581 </v>
   <v>       0.04005400       0.09457139       0.48427831 </v>
   <v>       0.43774823      -0.02548551       0.48998947 </v>
   <v>       0.09538028       0.16300653       0.48129691 </v>
   <v>       0.45146070      -0.03929556       0.38461681 </v>
   <v>       0.45978072      -0.01802787      -0.44905094 </v>
   <v>       0.46960877      -0.03250424       0.43333854 </v>
   <v>      -0.00885658      -0.15252648      -0.48809876 </v>
   <v>      -0.03976413      -0.04717781       0.49236353 </v>
   <v>      -0.00933214       0.11814219       0.47535572 </v>
   <v>      -0.06782142      -0.07595681       0.49299873 </v>
   <v>      -0.00887415      -0.21098895      -0.48158409 </v>
   <v>      -0.05818121      -0.12883183      -0.49827498 </v>
   <v>      -0.06536273       0.03814092       0.47621999 </v>
   <v>       0.01570449      -0.21124587      -0.37828921 </v>
   <v>      -0.05796722       0.09158441       0.47213502 </v>
   <v>      -0.48840643      -0.01724133      -0.44536941 </v>
   <v>       0.00499000      -0.23552833      -0.42118360 </v>
   <v>      -0.47794337      -0.03143387       0.43691708 </v>
   <v>       0.01022347       0.17890169       0.36558553 </v>
   <v>      -0.00963670       0.17690726       0.47045696 </v>
   <v>       0.47709398      -0.03844546      -0.32173405 </v>
   <v>       0.47664705       0.03126399      -0.33425732 </v>
   <v>      -0.03344816      -0.22387090       0.41635866 </v>
   <v>      -0.02301628      -0.24279440       0.46350597 </v>
   <v>       0.00174748       0.20241713       0.40994691 </v>
   <v>      -0.45555713      -0.02389446       0.49677952 </v>
   <v>      -0.49796724      -0.00347681      -0.32868437 </v>
   <v>      -0.12085481      -0.06702206       0.48523695 </v>
   <v>      -0.46426977      -0.00958962      -0.38606679 </v>
   <v>      -0.11861961       0.03098239       0.47134533 </v>
   <v>      -0.02089442       0.20754861      -0.47266767 </v>
   <v>      -0.02966244       0.18769955      -0.42555807 </v>
   <v>       0.00471256      -0.29023458      -0.41585557 </v>
   <v>      -0.10827929      -0.15489403       0.49957118 </v>
   <v>      -0.02316571      -0.29729708       0.46859651 </v>
   <v>      -0.10788825       0.11905876       0.46418437 </v>
   <v>      -0.14505062      -0.01790700       0.47507499 </v>
   <v>       0.01533207      -0.30895648      -0.36857635 </v>
   <v>       0.00226754       0.25726214       0.40650683 </v>
   <v>      -0.00927426      -0.32193785      -0.47077377 </v>
   <v>      -0.11397116      -0.19696993      -0.49440832 </v>
   <v>      -0.47117424       0.00147877      -0.28631085 </v>
   <v>      -0.14627102      -0.11741084       0.48900359 </v>
   <v>      -0.03366856      -0.32200449       0.42603990 </v>
   <v>      -0.14581208       0.08128165       0.46407254 </v>
   <v>       0.01128285       0.27688740       0.35926045 </v>
   <v>      -0.40159014      -0.02450092      -0.49475229 </v>
   <v>      -0.02068113       0.26219202      -0.47599059 </v>
   <v>      -0.11287837       0.16141115       0.45992029 </v>
   <v>      -0.00887951       0.28789708       0.46337065 </v>
   <v>      -0.38775189       0.00039320       0.40725638 </v>
   <v>      -0.37133383      -0.01267418       0.45558301 </v>
   <v>      -0.02909391       0.28616801      -0.43204277 </v>
   <v>      -0.00881788      -0.37904447      -0.46409054 </v>
   <v>      -0.18829132      -0.12361256       0.48422495 </v>
   <v>      -0.20346501      -0.01784988       0.46942911 </v>
   <v>      -0.18802315       0.08672134       0.46013086 </v>
   <v>       0.00230415      -0.39522536      -0.41487275 </v>
   <v>      -0.20439682       0.00637833       0.36598257 </v>
   <v>      -0.21569034      -0.04183194      -0.42814822 </v>
   <v>      -0.00735750       0.34515885       0.45861366 </v>
   <v>      -0.02047573      -0.40958663       0.48628476 </v>
   <v>      -0.22836092      -0.00368419       0.40938864 </v>
   <v>       0.00442135       0.36214912       0.41004979 </v>
   <v>      -0.23487193      -0.03122407      -0.47504717 </v>
   <v>      -0.31427781      -0.01534300       0.46086729 </v>
   <v>      -0.01881251       0.37493268      -0.49105093 </v>
   <v>      -0.31375760      -0.03960675      -0.43591030 </v>
   <v>      -0.01971797      -0.46388573       0.49490957 </v>
   <v>      -0.30200312       0.00873647       0.35829653 </v>
   <v>      -0.28933133      -0.03000884      -0.47904294 </v>
   <v>      -0.28301164      -0.00239869       0.40520345 </v>
   <v>      -0.02986602      -0.47719969       0.38876293 </v>
   <v>      -0.01469054      -0.48623729      -0.44393760 </v>
   <v>      -0.02486174      -0.49558770       0.43770345 </v>
   <v>      -0.01862026       0.42912795      -0.49894549 </v>
   <v>       0.03016669       0.49625960      -0.32632121 </v>
   <v>      -0.00919392       0.43753841      -0.38083316 </v>
   <v>      -0.02404480       0.45188649       0.44106659 </v>
   <v>      -0.01425864       0.46182272      -0.44049813 </v>
   <v>      -0.03983323       0.49653203      -0.31834392 </v>
   <v>      -0.00209666       0.44427164      -0.28047963 </v>
   <v>      -0.00501566       0.47119727      -0.32307309 </v>
  </varray>
 </structure>
 <varray name="primitive_index" >
  <v type="int" >        1 </v>
  <v type="int" >       80 </v>
  <v type="int" >        2 </v>
  <v type="int" >       37 </v>
  <v type="int" >       79 </v>
  <v type="int" >       40 </v>
  <v type="int" >       38 </v>
  <v type="int" >       36 </v>
  <v type="int" >       97 </v>
  <v type="int" >       39 </v>
  <v type="int" >       33 </v>
  <v type="int" >       34 </v>
  <v type="int" >      101 </v>
  <v type="int" >       19 </v>
  <v type="int" >       88 </v>
  <v type="int" >       52 </v>
  <v type="int" >       18 </v>
  <v type="int" >      102 </v>
  <v type="int" >       64 </v>
  <v type="int" >       68 </v>
  <v type="int" >       35 </v>
  <v type="int" >      104 </v>
  <v type="int" >       65 </v>
  <v type="int" >       17 </v>
  <v type="int" >       89 </v>
  <v type="int" >       32 </v>
  <v type="int" >       98 </v>
  <v type="int" >       20 </v>
  <v type="int" >       16 </v>
  <v type="int" >       87 </v>
  <v type="int" >       82 </v>
  <v type="int" >       71 </v>
  <v type="int" >       10 </v>
  <v type="int" >       31 </v>
  <v type="int" >       90 </v>
  <v type="int" >       21 </v>
  <v type="int" >       67 </v>
  <v type="int" >       41 </v>
  <v type="int" >       28 </v>
  <v type="int" >       66 </v>
  <v type="int" >       99 </v>
  <v type="int" >       22 </v>
  <v type="int" >       57 </v>
  <v type="int" >       44 </v>
  <v type="int" >       62 </v>
  <v type="int" >       74 </v>
  <v type="int" >       48 </v>
  <v type="int" >      110 </v>
  <v type="int" >      109 </v>
  <v type="int" >       77 </v>
  <v type="int" >        3 </v>
  <v type="int" >        7 </v>
  <v type="int" >       56 </v>
  <v type="int" >       58 </v>
  <v type="int" >       27 </v>
  <v type="int" >       60 </v>
  <v type="int" >       23 </v>
  <v type="int" >       49 </v>
  <v type="int" >       86 </v>
  <v type="int" >       43 </v>
  <v type="int" >       29 </v>
  <v type="int" >        4 </v>
  <v type="int" >       25 </v>
  <v type="int" >       26 </v>
  <v type="int" >      100 </v>
  <v type="int" >        8 </v>
  <v type="int" >       42 </v>
  <v type="int" >       96 </v>
  <v type="int" >      108 </v>
  <v type="int" >       30 </v>
  <v type="int" >       78 </v>
  <v type="int" >       24 </v>
  <v type="int" >       73 </v>
  <v type="int" >       72 </v>
  <v type="int" >       50 </v>
  <v type="int" >       91 </v>
  <v type="int" >       12 </v>
  <v type="int" >       83 </v>
  <v type="int" >       13 </v>
  <v type="int" >       85 </v>
  <v type="int" >       51 </v>
  <v type="int" >       95 </v>
  <v type="int" >       45 </v>
  <v type="int" >       92 </v>
  <v type="int" >      103 </v>
  <v type="int" >       75 </v>
  <v type="int" >       93 </v>
  <v type="int" >       14 </v>
  <v type="int" >       63 </v>
  <v type="int" >        6 </v>
  <v type="int" >       84 </v>
  <v type="int" >       46 </v>
  <v type="int" >       11 </v>
  <v type="int" >       70 </v>
  <v type="int" >       94 </v>
  <v type="int" >       15 </v>
  <v type="int" >       76 </v>
  <v type="int" >       47 </v>
  <v type="int" >        5 </v>
  <v type="int" >       81 </v>
  <v type="int" >       69 </v>
  <v type="int" >        9 </v>
  <v type="int" >       53 </v>
  <v type="int" >      106 </v>
  <v type="int" >       59 </v>
  <v type="int" >       61 </v>
  <v type="int" >       54 </v>
  <v type="int" >      107 </v>
  <v type="int" >      105 </v>
  <v type="int" >       55 </v>
 </varray>
 <kpoints>
  <generation param="listgenerated">
   <i name="divisions" type="int">      20 </i>
   <v>       0.00000000       0.00000000       0.00000000 </v>
   <v>       0.50000000       0.00000000       0.00000000 </v>
   <v>       0.50000000       0.50000000       0.00000000 </v>
   <v>       0.00000000       0.00000000       0.00000000 </v>
  </generation>
  <varray name="kpointlist" >
   <v>       0.00000000       0.00000000       0.00000000 </v>
   <v>       0.02631579       0.00000000       0.00000000 </v>
   <v>       0.05263158       0.00000000       0.00000000 </v>
   <v>       0.07894737       0.00000000       0.00000000 </v>
   <v>       0.10526316       0.00000000       0.00000000 </v>
   <v>       0.13157895       0.00000000       0.00000000 </v>
   <v>       0.15789474       0.00000000       0.00000000 </v>
   <v>       0.18421053       0.00000000       0.00000000 </v>
   <v>       0.21052632       0.00000000       0.00000000 </v>
   <v>       0.23684211       0.00000000       0.00000000 </v>
   <v>       0.26315789       0.00000000       0.00000000 </v>
   <v>       0.28947368       0.00000000       0.00000000 </v>
   <v>       0.31578947       0.00000000       0.00000000 </v>
   <v>       0.34210526       0.00000000       0.00000000 </v>
   <v>       0.36842105       0.00000000       0.00000000 </v>
   <v>       0.39473684       0.00000000       0.00000000 </v>
   <v>       0.42105263       0.00000000       0.00000000 </v>
   <v>       0.44736842       0.00000000       0.00000000 </v>
   <v>       0.47368421       0.00000000       0.00000000 </v>
   <v>       0.50000000       0.00000000       0.00000000 </v>
   <v>       0.50000000       0.00000000       0.00000000 </v>
   <v>       0.50000000       0.02631579       0.00000000 </v>
   <v>       0.50000000       0.05263158       0.00000000 </v>
   <v>       0.50000000       0.07894737       0.00000000 </v>
   <v>       0.50000000       0.10526316       0.00000000 </v>
   <v>       0.50000000       0.13157895       0.00000000 </v>
   <v>       0.50000000       0.15789474       0.00000000 </v>
   <v>       0.50000000       0.18421053       0.00000000 </v>
   <v>       0.50000000       0.21052632       0.00000000 </v>
   <v>       0.50000000       0.23684211       0.00000000 </v>
   <v>       0.50000000       0.26315789       0.00000000 </v>
   <v>       0.50000000       0.28947368       0.00000000 </v>
   <v>       0.50000000       0.31578947       0.00000000 </v>
   <v>       0.50000000       0.34210526       0.00000000 </v>
   <v>       0.50000000       0.36842105       0.00000000 </v>
   <v>       0.50000000       0.39473684       0.00000000 </v>
   <v>       0.50000000       0.42105263       0.00000000 </v>
   <v>       0.50000000       0.44736842       0.00000000 </v>
   <v>       0.50000000       0.47368421       0.00000000 </v>
   <v>       0.50000000       0.50000000       0.00000000 </v>
   <v>       0.50000000       0.50000000       0.00000000 </v>
   <v>       0.47368421       0.47368421       0.00000000 </v>
   <v>       0.44736842       0.44736842       0.00000000 </v>
   <v>       0.42105263       0.42105263       0.00000000 </v>
   <v>       0.39473684       0.39473684       0.00000000 </v>
   <v>       0.36842105       0.36842105       0.00000000 </v>
   <v>       0.34210526       0.34210526       0.00000000 </v>
   <v>       0.31578947       0.31578947       0.00000000 </v>
   <v>       0.28947368       0.28947368       0.00000000 </v>
   <v>       0.26315789       0.26315789       0.00000000 </v>
   <v>       0.23684211       0.23684211       0.00000000 </v>
   <v>       0.21052632       0.21052632       0.00000000 </v>
   <v>       0.18421053       0.18421053       0.00000000 </v>
   <v>       0.15789474       0.15789474       0.00000000 </v>
   <v>       0.13157895       0.13157895       0.00000000 </v>
   <v>       0.10526316       0.10526316       0.00000000 </v>
   <v>       0.07894737       0.07894737       0.00000000 </v>
   <v>       0.05263158       0.05263158       0.00000000 </v>
   <v>       0.02631579       0.02631579       0.00000000 </v>
   <v>       0.00000000       0.00000000       0.00000000 </v>
  </varray>
  <varray name="weights" >
   <v>       0.01666667 </v>
   <v>       0.01666667 </v>
   <v>       0.01666667 </v>
   <v>       0.01666667 </v>
   <v>       0.01666667 </v>
   <v>       0.01666667 </v>
   <v>       0.01666667 </v>
   <v>       0.01666667 </v>
   <v>       0.01666667 </v>
   <v>       0.01666667 </v>
   <v>       0.01666667 </v>
   <v>       0.01666667 </v>
   <v>       0.01666667 </v>
   <v>       0.01666667 </v>
   <v>       0.01666667 </v>
   <v>       0.01666667 </v>
   <v>       0.01666667 </v>
   <v>       0.01666667 </v>
   <v>       0.01666667 </v>
   <v>       0.01666667 </v>
   <v>       0.01666667 </v>
   <v>       0.01666667 </v>
   <v>       0.01666667 </v>
   <v>       0.01666667 </v>
   <v>       0.01666667 </v>
   <v>       0.01666667 </v>
   <v>       0.01666667 </v>
   <v>       0.01666667 </v>
   <v>       0.01666667 </v>
   <v>       0.01666667 </v>
   <v>       0.01666667 </v>
   <v>       0.01666667 </v>
   <v>       0.01666667 </v>
   <v>       0.01666667 </v>
   <v>       0.01666667 </v>
   <v>       0.01666667 </v>
   <v>       0.01666667 </v>
   <v>       0.01666667 </v>
   <v>       0.01666667 </v>
   <v>       0.01666667 </v>
   <v>       0.01666667 </v>
   <v>       0.01666667 </v>
   <v>       0.01666667 </v>
   <v>       0.01666667 </v>
   <v>       0.01666667 </v>
   <v>       0.01666667 </v>
   <v>       0.01666667 </v>
   <v>       0.01666667 </v>
   <v>       0.01666667 </v>
   <v>       0.01666667 </v>
   <v>       0.01666667 </v>
   <v>       0.01666667 </v>
   <v>       0.01666667 </v>
   <v>       0.01666667 </v>
   <v>       0.01666667 </v>
   <v>       0.01666667 </v>
   <v>       0.01666667 </v>
   <v>       0.01666667 </v>
   <v>       0.01666667 </v>
   <v>       0.01666667 </v>
  </varray>
 </kpoints>
 <parameters>
  <separator name="general" >
   <i type="string" name="SYSTEM">Simulation for cell shape cell volume r</i>
   <i type="logical" name="LCOMPAT"> F  </i>
  </separator>
  <separator name="electronic" >
   <i type="string" name="PREC">high</i>
   <i name="ENMAX">    500.00000000</i>
   <i name="ENAUG">    644.87300000</i>
   <i name="EDIFF">      0.00001000</i>
   <i type="int" name="IALGO">    38</i>
   <i type="int" name="IWAVPR">    10</i>
   <i type="int" name="NBANDS">   240</i>
   <i name="NELECT">    342.00000000</i>
   <i type="int" name="TURBO">     0</i>
   <i type="int" name="IRESTART">     0</i>
   <i type="int" name="NREBOOT">     0</i>
   <i type="int" name="NMIN">     0</i>
   <i name="EREF">      0.00000000</i>
   <separator name="electronic smearing" >
    <i type="int" name="ISMEAR">     0</i>
    <i name="SIGMA">      0.01000000</i>
    <i name="KSPACING">      0.50000000</i>
    <i type="logical" name="KGAMMA"> T  </i>
   </separator>
   <separator name="electronic projectors" >
    <i type="logical" name="LREAL"> T  </i>
    <v name="ROPT">     -0.00040000     -0.00040000     -0.00040000     -0.00040000</v>
    <i type="int" name="LMAXPAW">  -100</i>
    <i type="int" name="LMAXMIX">     2</i>
    <i type="logical" name="NLSPLINE"> F  </i>
   </separator>
   <separator name="electronic startup" >
    <i type="int" name="ISTART">     1</i>
    <i type="int" name="ICHARG">    11</i>
    <i type="int" name="INIWAV">     1</i>
   </separator>
   <separator name="electronic spin" >
    <i type="int" name="ISPIN">     1</i>
    <i type="logical" name="LNONCOLLINEAR"> F  </i>
    <v name="MAGMOM">      1.00000000      1.00000000      1.00000000      1.00000000      1.00000000      1.00000000      1.00000000      1.00000000      1.00000000      1.00000000      1.00000000      1.00000000      1.00000000      1.00000000      1.00000000      1.00000000      1.00000000      1.00000000      1.00000000      1.00000000
      1.00000000      1.00000000      1.00000000      1.00000000      1.00000000      1.00000000      1.00000000      1.00000000      1.00000000      1.00000000      1.00000000      1.00000000      1.00000000      1.00000000      1.00000000      1.00000000      1.00000000      1.00000000      1.00000000      1.00000000
      1.00000000      1.00000000      1.00000000      1.00000000      1.00000000      1.00000000      1.00000000      1.00000000      1.00000000      1.00000000      1.00000000      1.00000000      1.00000000      1.00000000      1.00000000      1.00000000      1.00000000      1.00000000      1.00000000      1.00000000
      1.00000000      1.00000000      1.00000000      1.00000000      1.00000000      1.00000000      1.00000000      1.00000000      1.00000000      1.00000000      1.00000000      1.00000000      1.00000000      1.00000000      1.00000000      1.00000000      1.00000000      1.00000000      1.00000000      1.00000000
      1.00000000      1.00000000      1.00000000      1.00000000      1.00000000      1.00000000      1.00000000      1.00000000      1.00000000      1.00000000      1.00000000      1.00000000      1.00000000      1.00000000      1.00000000      1.00000000      1.00000000      1.00000000      1.00000000      1.00000000
      1.00000000      1.00000000      1.00000000      1.00000000      1.00000000      1.00000000      1.00000000      1.00000000      1.00000000      1.00000000</v>
    <i name="NUPDOWN">     -1.00000000</i>
    <i type="logical" name="LSORBIT"> F  </i>
    <v name="SAXIS">      0.00000000      0.00000000      1.00000000</v>
    <i type="logical" name="LSPIRAL"> F  </i>
    <v name="QSPIRAL">      0.00000000      0.00000000      0.00000000</v>
    <i type="logical" name="LZEROZ"> F  </i>
   </separator>
   <separator name="electronic exchange-correlation" >
    <i type="logical" name="LASPH"> F  </i>
    <i type="logical" name="LMETAGGA"> F  </i>
   </separator>
   <separator name="electronic convergence" >
    <i type="int" name="NELM">   200</i>
    <i type="int" name="NELMDL">     0</i>
    <i type="int" name="NELMIN">     2</i>
    <i name="ENINI">    500.00000000</i>
    <separator name="electronic convergence detail" >
     <i type="logical" name="LDIAG"> T  </i>
     <i type="logical" name="LSUBROT"> F  </i>
     <i name="WEIMIN">      0.00000000</i>
     <i name="EBREAK">      0.00000001</i>
     <i name="DEPER">      0.30000000</i>
     <i type="int" name="NRMM">     4</i>
     <i name="TIME">      0.40000000</i>
    </separator>
   </separator>
   <separator name="electronic mixer" >
    <i name="AMIX">      0.40000000</i>
    <i name="BMIX">      1.00000000</i>
    <i name="AMIN">      0.10000000</i>
    <i name="AMIX_MAG">      1.60000000</i>
    <i name="BMIX_MAG">      1.00000000</i>
    <separator name="electronic mixer details" >
     <i type="int" name="IMIX">     4</i>
     <i type="logical" name="MIXFIRST"> F  </i>
     <i type="int" name="MAXMIX">   -45</i>
     <i name="WC">    100.00000000</i>
     <i type="int" name="INIMIX">     1</i>
     <i type="int" name="MIXPRE">     1</i>
     <i type="int" name="MREMOVE">     5</i>
    </separator>
   </separator>
   <separator name="electronic dipolcorrection" >
    <i type="logical" name="LDIPOL"> F  </i>
    <i type="logical" name="LMONO"> F  </i>
    <i type="int" name="IDIPOL">     0</i>
    <i name="EPSILON">      1.00000000</i>
    <v name="DIPOL">   -100.00000000   -100.00000000   -100.00000000</v>
    <i name="EFIELD">      0.00000000</i>
   </separator>
  </separator>
  <separator name="grids" >
   <i type="int" name="NGX">   192</i>
   <i type="int" name="NGY">   192</i>
   <i type="int" name="NGZ">   150</i>
   <i type="int" name="NGXF">   280</i>
   <i type="int" name="NGYF">   280</i>
   <i type="int" name="NGZF">   224</i>
   <i type="logical" name="ADDGRID"> F  </i>
  </separator>
  <separator name="ionic" >
   <i type="int" name="NSW">     0</i>
   <i type="int" name="IBRION">    -1</i>
   <i type="int" name="MDALGO">     0</i>
   <i type="int" name="ISIF">     2</i>
   <i name="PSTRESS">      0.00000000</i>
   <i name="EDIFFG">     -0.01000000</i>
   <i type="int" name="NFREE">     0</i>
   <i name="POTIM">      0.30000000</i>
   <i name="SMASS">     -3.00000000</i>
   <i name="SCALEE">      1.00000000</i>
  </separator>
  <separator name="ionic md" >
   <i name="TEBEG">      0.00010000</i>
   <i name="TEEND">      0.00010000</i>
   <i type="int" name="NBLOCK">     1</i>
   <i type="int" name="KBLOCK">     1</i>
   <i type="int" name="NPACO">   256</i>
   <i name="APACO">     16.00000000</i>
  </separator>
  <separator name="symmetry" >
   <i type="int" name="ISYM">     2</i>
   <i name="SYMPREC">      0.00001000</i>
  </separator>
  <separator name="dos" >
   <i type="int" name="LORBIT">     0</i>
   <v name="RWIGS">     -1.00000000     -1.00000000     -1.00000000     -1.00000000</v>
   <i type="int" name="NEDOS">   301</i>
   <i name="EMIN">     10.00000000</i>
   <i name="EMAX">    -10.00000000</i>
   <i name="EFERMI">      0.00000000</i>
  </separator>
  <separator name="writing" >
   <i type="int" name="NWRITE">     0</i>
   <i type="logical" name="LWAVE"> F  </i>
   <i type="logical" name="LDOWNSAMPLE"> F  </i>
   <i type="logical" name="LCHARG"> F  </i>
   <i type="logical" name="LPARD"> F  </i>
   <i type="logical" name="LVTOT"> F  </i>
   <i type="logical" name="LVHAR"> F  </i>
   <i type="logical" name="LELF"> F  </i>
   <i type="logical" name="LOPTICS"> F  </i>
   <v name="STM">      0.00000000      0.00000000      0.00000000      0.00000000      0.00000000      0.00000000      0.00000000</v>
  </separator>
  <separator name="performance" >
   <i type="int" name="NPAR">    16</i>
   <i type="int" name="NSIM">     4</i>
   <i type="int" name="NBLK">    -1</i>
   <i type="logical" name="LPLANE"> T  </i>
   <i type="logical" name="LSCALAPACK"> T  </i>
   <i type="logical" name="LSCAAWARE"> F  </i>
   <i type="logical" name="LSCALU"> F  </i>
   <i type="logical" name="LASYNC"> F  </i>
   <i type="logical" name="LORBITALREAL"> F  </i>
  </separator>
  <separator name="miscellaneous" >
   <i type="int" name="IDIOT">     3</i>
   <i type="int" name="ISPECIAL">     0</i>
   <i type="logical" name="LMUSIC"> F  </i>
   <v name="POMASS">     12.01100000     16.00000000     14.00100000      1.00000000</v>
   <v name="DARWINR">      0.00000000      0.00000000      0.00000000      0.00000000</v>
   <v name="DARWINV">      1.00000000      1.00000000      1.00000000      1.00000000</v>
   <i type="logical" name="LCORR"> T  </i>
  </separator>
  <i type="logical" name="GGA_COMPAT"> T  </i>
  <i type="logical" name="LBERRY"> F  </i>
  <i type="int" name="ICORELEVEL">     0</i>
  <i type="logical" name="LDAU"> F  </i>
  <i type="int" name="I_CONSTRAINED_M">     0</i>
  <separator name="electronic exchange-correlation" >
   <i type="string" name="GGA">PE</i>
   <i type="int" name="VOSKOWN">     0</i>
   <i type="logical" name="LHFCALC"> F  </i>
   <i type="string" name="PRECFOCK"></i>
   <i type="logical" name="LSYMGRAD"> F  </i>
   <i type="logical" name="LHFONE"> F  </i>
   <i type="logical" name="LRHFCALC"> F  </i>
   <i type="logical" name="LTHOMAS"> F  </i>
   <i type="logical" name="LMODELHF"> F  </i>
   <i name="ENCUT4O">     -1.00000000</i>
   <i type="int" name="EXXOEP">     0</i>
   <i type="int" name="FOURORBIT">     0</i>
   <i name="AEXX">      0.00000000</i>
   <i name="HFALPHA">      0.00000000</i>
   <i name="MCALPHA">      0.00000000</i>
   <i name="ALDAX">      1.00000000</i>
   <i name="AGGAX">      1.00000000</i>
   <i name="ALDAC">      1.00000000</i>
   <i name="AGGAC">      1.00000000</i>
   <i type="int" name="NKREDX">     1</i>
   <i type="int" name="NKREDY">     1</i>
   <i type="int" name="NKREDZ">     1</i>
   <i type="logical" name="SHIFTRED"> F  </i>
   <i type="logical" name="ODDONLY"> F  </i>
   <i type="logical" name="EVENONLY"> F  </i>
   <i type="int" name="LMAXFOCK">     0</i>
   <i type="int" name="NMAXFOCKAE">     0</i>
   <i type="logical" name="LFOCKAEDFT"> F  </i>
   <i name="HFSCREEN">      0.00000000</i>
   <i name="HFSCREENC">      0.00000000</i>
   <i type="int" name="NBANDSGWLOW">     0</i>
  </separator>
  <separator name="vdW DFT" >
   <i type="logical" name="LUSE_VDW"> F  </i>
   <i name="Zab_VDW">     -0.84910000</i>
   <i name="PARAM1">      0.12340000</i>
   <i name="PARAM2">      1.00000000</i>
   <i name="PARAM3">      0.00000000</i>
  </separator>
  <separator name="model GW" >
   <i type="int" name="MODEL_GW">     0</i>
   <i name="MODEL_EPS0">     70.43496786</i>
   <i name="MODEL_ALPHA">      1.00000000</i>
  </separator>
  <separator name="linear response parameters" >
   <i type="logical" name="LEPSILON"> F  </i>
   <i type="logical" name="LRPA"> F  </i>
   <i type="logical" name="LNABLA"> F  </i>
   <i type="logical" name="LVEL"> F  </i>
   <i type="int" name="KINTER">     0</i>
   <i name="CSHIFT">      0.10000000</i>
   <i name="OMEGAMAX">     -1.00000000</i>
   <i name="DEG_THRESHOLD">      0.00200000</i>
   <i name="RTIME">     -0.10000000</i>
   <i name="WPLASMAI">      0.00000000</i>
   <v name="DFIELD">      0.00000000      0.00000000      0.00000000</v>
   <v name="WPLASMA">      0.00000000      0.00000000      0.00000000      0.00000000      0.00000000      0.00000000      0.00000000      0.00000000      0.00000000</v>
  </separator>
  <separator name="orbital magnetization" >
   <i type="logical" name="NUCIND"> F  </i>
   <v name="MAGPOS">      0.00000000      0.00000000      0.00000000</v>
   <i type="logical" name="LNICSALL"> T  </i>
   <i type="logical" name="ORBITALMAG"> F  </i>
   <i type="logical" name="LMAGBLOCH"> F  </i>
   <i type="logical" name="LCHIMAG"> F  </i>
   <i type="logical" name="LGAUGE"> T  </i>
   <i type="int" name="MAGATOM">     0</i>
   <v name="MAGDIPOL">      0.00000000      0.00000000      0.00000000</v>
   <v name="AVECCONST">      0.00000000      0.00000000      0.00000000</v>
  </separator>
  <separator name="response functions" >
   <i type="logical" name="LADDER"> F  </i>
   <i type="logical" name="LRPAFORCE"> F  </i>
   <i type="logical" name="LFXC"> F  </i>
   <i type="logical" name="LHARTREE"> T  </i>
   <i type="int" name="IBSE">     0</i>
   <v type="int" name="KPOINT">    -1     0     0     0</v>
   <i type="logical" name="LTCTE"> F  </i>
   <i type="logical" name="LTETE"> F  </i>
   <i type="logical" name="LTRIPLET"> F  </i>
   <i type="logical" name="LFXCEPS"> F  </i>
   <i type="logical" name="LFXHEG"> F  </i>
   <i type="int" name="NATURALO">     2</i>
   <i type="logical" name="L2ORDER"> F  </i>
   <i type="logical" name="LMP2LT"> F  </i>
   <i type="logical" name="LUSEW"> F  </i>
   <i name="ENCUTGW">     -2.00000000</i>
   <i name="ENCUTGWSOFT">     -2.00000000</i>
   <i name="ENCUTLF">     -1.00000000</i>
   <i type="int" name="LMAXMP2">    -1</i>
   <i name="SCISSOR">      0.00000000</i>
   <i type="int" name="NOMEGA">     0</i>
   <i type="int" name="NOMEGAR">     0</i>
   <i type="int" name="NBANDSGW">    -1</i>
   <i type="int" name="NBANDSO">    -1</i>
   <i type="int" name="NBANDSV">    -1</i>
   <i type="int" name="NELM">   200</i>
   <i type="int" name="NELMHF">     1</i>
   <i type="int" name="DIM">     3</i>
   <i type="int" name="ANTIRES">     0</i>
   <i name="OMEGAMAX">    -30.00000000</i>
   <i name="OMEGAMIN">    -30.00000000</i>
   <i name="OMEGATL">   -200.00000000</i>
   <i type="int" name="OMEGAGRID">   140</i>
   <i name="CSHIFT">     -0.10000000</i>
   <i type="logical" name="SELFENERGY"> F  </i>
   <i type="logical" name="LSPECTRAL"> F  </i>
   <i type="logical" name="LSPECTRALGW"> F  </i>
   <i type="logical" name="LSINGLES"> F  </i>
   <i type="logical" name="LFERMIGW"> F  </i>
   <i type="logical" name="ODDONLYGW"> F  </i>
   <i type="logical" name="EVENONLYGW"> F  </i>
   <i type="int" name="NKREDLFX">     1</i>
   <i type="int" name="NKREDLFY">     1</i>
   <i type="int" name="NKREDLFZ">     1</i>
   <i type="int" name="MAXMEM">  2800</i>
   <i type="int" name="TELESCOPE">     0</i>
   <i type="int" name="TAUPAR">     1</i>
   <i type="int" name="OMEGAPAR">    -1</i>
   <i name="LAMBDA">      1.00000000</i>
  </separator>
  <separator name="External order field" >
   <i name="OFIELD_KAPPA">      0.00000000</i>
   <v name="OFIELD_K">      0.00000000      0.00000000      0.00000000</v>
   <i name="OFIELD_Q6_NEAR">      0.00000000</i>
   <i name="OFIELD_Q6_FAR">      0.00000000</i>
   <i name="OFIELD_A">      0.00000000</i>
  </separator>
  <separator name="solvation model" >
   <i type="logical" name="LSOL"> F  </i>
  </separator>
 </parameters>
 <atominfo>
  <atoms>     110 </atoms>
  <types>       4 </types>
  <array name="atoms" >
   <dimension dim="1">ion</dimension>
   <field type="string">element</field>
   <field type="int">atomtype</field>
   <set>
    <rc><c>C </c><c>   1</c></rc>
    <rc><c>C </c><c>   1</c></rc>
    <rc><c>C </c><c>   1</c></rc>
    <rc><c>C </c><c>   1</c></rc>
    <rc><c>C </c><c>   1</c></rc>
    <rc><c>C </c><c>   1</c></rc>
    <rc><c>C </c><c>   1</c></rc>
    <rc><c>C </c><c>   1</c></rc>
    <rc><c>C </c><c>   1</c></rc>
    <rc><c>C </c><c>   1</c></rc>
    <rc><c>C </c><c>   1</c></rc>
    <rc><c>C </c><c>   1</c></rc>
    <rc><c>C </c><c>   1</c></rc>
    <rc><c>C </c><c>   1</c></rc>
    <rc><c>C </c><c>   1</c></rc>
    <rc><c>C </c><c>   1</c></rc>
    <rc><c>C </c><c>   1</c></rc>
    <rc><c>C </c><c>   1</c></rc>
    <rc><c>C </c><c>   1</c></rc>
    <rc><c>C </c><c>   1</c></rc>
    <rc><c>C </c><c>   1</c></rc>
    <rc><c>C </c><c>   1</c></rc>
    <rc><c>C </c><c>   1</c></rc>
    <rc><c>C </c><c>   1</c></rc>
    <rc><c>C </c><c>   1</c></rc>
    <rc><c>C </c><c>   1</c></rc>
    <rc><c>C </c><c>   1</c></rc>
    <rc><c>C </c><c>   1</c></rc>
    <rc><c>C </c><c>   1</c></rc>
    <rc><c>C </c><c>   1</c></rc>
    <rc><c>C </c><c>   1</c></rc>
    <rc><c>C </c><c>   1</c></rc>
    <rc><c>C </c><c>   1</c></rc>
    <rc><c>C </c><c>   1</c></rc>
    <rc><c>C </c><c>   1</c></rc>
    <rc><c>C </c><c>   1</c></rc>
    <rc><c>C </c><c>   1</c></rc>
    <rc><c>C </c><c>   1</c></rc>
    <rc><c>C </c><c>   1</c></rc>
    <rc><c>C </c><c>   1</c></rc>
    <rc><c>C </c><c>   1</c></rc>
    <rc><c>C </c><c>   1</c></rc>
    <rc><c>C </c><c>   1</c></rc>
    <rc><c>C </c><c>   1</c></rc>
    <rc><c>C </c><c>   1</c></rc>
    <rc><c>C </c><c>   1</c></rc>
    <rc><c>C </c><c>   1</c></rc>
    <rc><c>C </c><c>   1</c></rc>
    <rc><c>C </c><c>   1</c></rc>
    <rc><c>C </c><c>   1</c></rc>
    <rc><c>C </c><c>   1</c></rc>
    <rc><c>C </c><c>   1</c></rc>
    <rc><c>C </c><c>   1</c></rc>
    <rc><c>C </c><c>   1</c></rc>
    <rc><c>C </c><c>   1</c></rc>
    <rc><c>C </c><c>   1</c></rc>
    <rc><c>C </c><c>   1</c></rc>
    <rc><c>C </c><c>   1</c></rc>
    <rc><c>O </c><c>   2</c></rc>
    <rc><c>O </c><c>   2</c></rc>
    <rc><c>N </c><c>   3</c></rc>
    <rc><c>N </c><c>   3</c></rc>
    <rc><c>N </c><c>   3</c></rc>
    <rc><c>N </c><c>   3</c></rc>
    <rc><c>N </c><c>   3</c></rc>
    <rc><c>N </c><c>   3</c></rc>
    <rc><c>N </c><c>   3</c></rc>
    <rc><c>N </c><c>   3</c></rc>
    <rc><c>N </c><c>   3</c></rc>
    <rc><c>N </c><c>   3</c></rc>
    <rc><c>N </c><c>   3</c></rc>
    <rc><c>N </c><c>   3</c></rc>
    <rc><c>H </c><c>   4</c></rc>
    <rc><c>H </c><c>   4</c></rc>
    <rc><c>H </c><c>   4</c></rc>
    <rc><c>H </c><c>   4</c></rc>
    <rc><c>H </c><c>   4</c></rc>
    <rc><c>H </c><c>   4</c></rc>
    <rc><c>H </c><c>   4</c></rc>
    <rc><c>H </c><c>   4</c></rc>
    <rc><c>H </c><c>   4</c></rc>
    <rc><c>H </c><c>   4</c></rc>
    <rc><c>H </c><c>   4</c></rc>
    <rc><c>H </c><c>   4</c></rc>
    <rc><c>H </c><c>   4</c></rc>
    <rc><c>H </c><c>   4</c></rc>
    <rc><c>H </c><c>   4</c></rc>
    <rc><c>H </c><c>   4</c></rc>
    <rc><c>H </c><c>   4</c></rc>
    <rc><c>H </c><c>   4</c></rc>
    <rc><c>H </c><c>   4</c></rc>
    <rc><c>H </c><c>   4</c></rc>
    <rc><c>H </c><c>   4</c></rc>
    <rc><c>H </c><c>   4</c></rc>
    <rc><c>H </c><c>   4</c></rc>
    <rc><c>H </c><c>   4</c></rc>
    <rc><c>H </c><c>   4</c></rc>
    <rc><c>H </c><c>   4</c></rc>
    <rc><c>H </c><c>   4</c></rc>
    <rc><c>H </c><c>   4</c></rc>
    <rc><c>H </c><c>   4</c></rc>
    <rc><c>H </c><c>   4</c></rc>
    <rc><c>H </c><c>   4</c></rc>
    <rc><c>H </c><c>   4</c></rc>
    <rc><c>H </c><c>   4</c></rc>
    <rc><c>H </c><c>   4</c></rc>
    <rc><c>H </c><c>   4</c></rc>
    <rc><c>H </c><c>   4</c></rc>
    <rc><c>H </c><c>   4</c></rc>
    <rc><c>H </c><c>   4</c></rc>
   </set>
  </array>
  <array name="atomtypes" >
   <dimension dim="1">type</dimension>
   <field type="int">atomspertype</field>
   <field type="string">element</field>
   <field>mass</field>
   <field>valence</field>
   <field type="string">pseudopotential</field>
   <set>
    <rc><c>  58</c><c>C </c><c>     12.01100000</c><c>      4.00000000</c><c>  PAW_PBE C 08Apr2002                   </c></rc>
    <rc><c>   2</c><c>O </c><c>     16.00000000</c><c>      6.00000000</c><c>  PAW_PBE O 08Apr2002                   </c></rc>
    <rc><c>  12</c><c>N </c><c>     14.00100000</c><c>      5.00000000</c><c>  PAW_PBE N 08Apr2002                   </c></rc>
    <rc><c>  38</c><c>H </c><c>      1.00000000</c><c>      1.00000000</c><c>  PAW_PBE H 15Jun2001                   </c></rc>
   </set>
  </array>
 </atominfo>
 <structure name="initialpos" >
  <crystal>
   <varray name="basis" >
    <v>      25.43453053      -0.00745113       0.00000000 </v>
    <v>      -0.02341262      25.38494059       0.00000000 </v>
    <v>       0.00000000       0.00000000      20.00000000 </v>
   </varray>
   <i name="volume">  12913.07744064 </i>
   <varray name="rec_basis" >
    <v>       0.03931664       0.00003626       0.00000000 </v>
    <v>       0.00001154       0.03939345       0.00000000 </v>
    <v>       0.00000000       0.00000000       0.05000000 </v>
   </varray>
  </crystal>
  <varray name="positions" >
   <v>       0.21647771       0.96422338       0.46308820 </v>
   <v>       0.27095596       0.96518675       0.46704522 </v>
   <v>       0.97698372       0.75720560       0.46350597 </v>
   <v>       0.97683429       0.70270292       0.46859651 </v>
   <v>       0.71698836       0.99760131       0.40520345 </v>
   <v>       0.77163908       0.99631581       0.40938864 </v>
   <v>       0.00174748       0.20241713       0.40994691 </v>
   <v>       0.00226754       0.25726214       0.40650683 </v>
   <v>       0.97513826       0.50441230       0.43770345 </v>
   <v>       0.46960877       0.96749576       0.43333854 </v>
   <v>       0.68572219       0.98465700       0.46086729 </v>
   <v>       0.99112049       0.28789708       0.46337065 </v>
   <v>       0.62866617       0.98732582       0.45558301 </v>
   <v>       0.99264250       0.34515885       0.45861366 </v>
   <v>       0.98028203       0.53611427       0.49490957 </v>
   <v>       0.43774823       0.97451449       0.48998947 </v>
   <v>       0.09001754       0.12081676       0.48662245 </v>
   <v>       0.12818225       0.08330179       0.49613435 </v>
   <v>       0.10275194       0.03291434       0.50072100 </v>
   <v>       0.04005400       0.09457139       0.48427831 </v>
   <v>       0.99066786       0.11814219       0.47535572 </v>
   <v>       0.94203278       0.09158441       0.47213502 </v>
   <v>       0.88138039       0.03098239       0.47134533 </v>
   <v>       0.85418792       0.08128165       0.46407254 </v>
   <v>       0.89211175       0.11905876       0.46418437 </v>
   <v>       0.85494938       0.98209300       0.47507499 </v>
   <v>       0.87914519       0.93297794       0.48523695 </v>
   <v>       0.94181879       0.87116817       0.50172502 </v>
   <v>       0.89172071       0.84510597       0.49957118 </v>
   <v>       0.85372898       0.88258916       0.48900359 </v>
   <v>       0.99114342       0.84747352       0.51190124 </v>
   <v>       0.03989296       0.87408963       0.51523559 </v>
   <v>       0.10049167       0.93482981       0.51372774 </v>
   <v>       0.12775987       0.88490359       0.52340525 </v>
   <v>       0.09001458       0.84695083       0.52378797 </v>
   <v>       0.12685276       0.98370472       0.51012211 </v>
   <v>       0.18532756       0.98401708       0.51559043 </v>
   <v>       0.29611367       0.98588918       0.52409420 </v>
   <v>       0.26500936       0.00529514       0.57675669 </v>
   <v>       0.21034691       0.00453177       0.57248945 </v>
   <v>       0.99112585       0.78901105       0.51841591 </v>
   <v>       0.99072574       0.67806215       0.52922623 </v>
   <v>       0.00471256       0.70976542       0.58414443 </v>
   <v>       0.00499000       0.76447167       0.57881640 </v>
   <v>       0.79653499       0.98215012       0.46942911 </v>
   <v>       0.76512807       0.96877593       0.52495283 </v>
   <v>       0.71066867       0.96999116       0.52095706 </v>
   <v>       0.99036330       0.17690726       0.47045696 </v>
   <v>       0.97910558       0.20754861       0.52733233 </v>
   <v>       0.97931887       0.26219202       0.52400941 </v>
   <v>       0.99118212       0.62095553       0.53590946 </v>
   <v>       0.35317484       0.98785227       0.52961822 </v>
   <v>       0.98137974       0.42912795       0.50105451 </v>
   <v>       0.98574136       0.46182272       0.55950187 </v>
   <v>       0.99498434       0.47119727       0.67692691 </v>
   <v>       0.54444287       0.97610554       0.49677952 </v>
   <v>       0.51159357       0.98275867       0.55463059 </v>
   <v>       0.50203276       0.99652319       0.67131563 </v>
   <v>       0.99080608       0.43753841       0.61916684 </v>
   <v>       0.53573023       0.99041038       0.61393321 </v>
   <v>       0.97595520       0.45188649       0.44106659 </v>
   <v>       0.52205663       0.96856613       0.43691708 </v>
   <v>       0.97952427       0.59041337       0.48628476 </v>
   <v>       0.38354468       0.97277395       0.48145075 </v>
   <v>       0.04976336       0.04171004       0.49301026 </v>
   <v>       0.93463727       0.03814092       0.47621999 </v>
   <v>       0.93217858       0.92404319       0.49299873 </v>
   <v>       0.04719949       0.92736297       0.50918425 </v>
   <v>       0.98530946       0.51376271       0.55606240 </v>
   <v>       0.98118749       0.37493268       0.50894907 </v>
   <v>       0.45978072       0.98197213       0.55094906 </v>
   <v>       0.59840986       0.97549908       0.50524771 </v>
   <v>       0.01128285       0.27688740       0.35926045 </v>
   <v>       0.01022347       0.17890169       0.36558553 </v>
   <v>       0.79560318       0.00637833       0.36598257 </v>
   <v>       0.69799688       0.00873647       0.35829653 </v>
   <v>       0.96655184       0.77612910       0.41635866 </v>
   <v>       0.96633144       0.67799551       0.42603990 </v>
   <v>       0.29522221       0.95029059       0.42628710 </v>
   <v>       0.19711271       0.94834367       0.41875725 </v>
   <v>       0.97013398       0.52280031       0.38876293 </v>
   <v>       0.45146070       0.96070444       0.38461681 </v>
   <v>       0.61224811       0.00039320       0.40725638 </v>
   <v>       0.00442135       0.36214912       0.41004979 </v>
   <v>       0.97090609       0.28616801       0.56795723 </v>
   <v>       0.97033756       0.18769955       0.57444193 </v>
   <v>       0.09538028       0.16300653       0.48129691 </v>
   <v>       0.17030733       0.08940754       0.49961722 </v>
   <v>       0.02175647       0.01288159       0.49360232 </v>
   <v>       0.96023587       0.95282219       0.49236353 </v>
   <v>       0.88712163       0.16141115       0.45992029 </v>
   <v>       0.81197685       0.08672134       0.46013086 </v>
   <v>       0.78430966       0.95816806       0.57185178 </v>
   <v>       0.68624240       0.96039325       0.56408970 </v>
   <v>       0.81170868       0.87638744       0.48422495 </v>
   <v>       0.88602884       0.80303007       0.50559168 </v>
   <v>       0.16992245       0.87983691       0.52884503 </v>
   <v>       0.09536862       0.80472802       0.52888419 </v>
   <v>       0.01570449       0.78875413       0.62171079 </v>
   <v>       0.01533207       0.69104352       0.63142365 </v>
   <v>       0.18650266       0.01965463       0.61354895 </v>
   <v>       0.28415224       0.02115019       0.62133128 </v>
   <v>       0.00230415       0.60477464       0.58512725 </v>
   <v>       0.36951885       0.00319402       0.57690215 </v>
   <v>       0.99790334       0.44427164       0.71952037 </v>
   <v>       0.03016669       0.49625960       0.67367879 </v>
   <v>       0.96016677       0.49653203       0.68165608 </v>
   <v>       0.52882576       0.00147877       0.71368915 </v>
   <v>       0.47664705       0.03126399       0.66574268 </v>
   <v>       0.47709398       0.96155454       0.67826595 </v>
  </varray>
 </structure>
 <calculation>
  <scstep>
   <time name="dav">  457.70  462.47</time>
   <time name="total">  457.89  462.67</time>
   <energy>
    <i name="alphaZ">     42.07399114 </i>
    <i name="ewald">  42662.97937185 </i>
    <i name="hartreedc"> -53380.65592973 </i>
    <i name="XCdc">   1200.27333936 </i>
    <i name="pawpsdc">  31594.34657261 </i>
    <i name="pawaedc"> -31655.88180147 </i>
    <i name="eentropy">     -0.00000000 </i>
    <i name="bandstr">  -4281.55005548 </i>
    <i name="atom">  13048.22385508 </i>
    <i name="e_fr_energy">   -770.19065665 </i>
    <i name="e_wo_entrp">   -770.19065665 </i>
    <i name="e_0_energy">   -770.19065665 </i>
   </energy>
  </scstep>
  <scstep>
   <time name="dav">  547.21  552.91</time>
   <time name="total">  547.21  552.92</time>
   <energy>
    <i name="e_fr_energy">   -770.73399876 </i>
    <i name="e_wo_entrp">   -770.73399876 </i>
    <i name="e_0_energy">   -770.73399876 </i>
   </energy>
  </scstep>
  <scstep>
   <time name="dav">  601.88  609.13</time>
   <time name="total">  601.88  609.13</time>
   <energy>
    <i name="e_fr_energy">   -770.74756435 </i>
    <i name="e_wo_entrp">   -770.74756435 </i>
    <i name="e_0_energy">   -770.74756435 </i>
   </energy>
  </scstep>
  <scstep>
   <time name="dav">  534.79  541.62</time>
   <time name="total">  534.79  541.62</time>
   <energy>
    <i name="e_fr_energy">   -770.74778055 </i>
    <i name="e_wo_entrp">   -770.74778055 </i>
    <i name="e_0_energy">   -770.74778055 </i>
   </energy>
  </scstep>
  <scstep>
   <time name="dav">  502.97  509.07</time>
   <time name="total">  502.97  509.07</time>
   <energy>
    <i name="alphaZ">     42.07399114 </i>
    <i name="ewald">  42662.97937185 </i>
    <i name="hartreedc"> -53380.65592973 </i>
    <i name="XCdc">   1200.27333936 </i>
    <i name="pawpsdc">  31594.34657261 </i>
    <i name="pawaedc"> -31655.88180147 </i>
    <i name="eentropy">     -0.00000000 </i>
    <i name="bandstr">  -4282.10718909 </i>
    <i name="atom">  13048.22385508 </i>
    <i name="e_fr_energy">   -770.74779026 </i>
    <i name="e_wo_entrp">   -770.74779026 </i>
    <i name="e_0_energy">   -770.74779026 </i>
   </energy>
  </scstep>
  <structure>
   <crystal>
    <varray name="basis" >
     <v>      25.43453053      -0.00745113       0.00000000 </v>
     <v>      -0.02341262      25.38494059       0.00000000 </v>
     <v>       0.00000000       0.00000000      20.00000000 </v>
    </varray>
    <i name="volume">  12913.07744064 </i>
    <varray name="rec_basis" >
     <v>       0.03931664       0.00003626       0.00000000 </v>
     <v>       0.00001154       0.03939345       0.00000000 </v>
     <v>       0.00000000       0.00000000       0.05000000 </v>
    </varray>
   </crystal>
   <varray name="positions" >
    <v>       0.21647771       0.96422338       0.46308820 </v>
    <v>       0.27095596       0.96518675       0.46704522 </v>
    <v>       0.97698372       0.75720560       0.46350597 </v>
    <v>       0.97683429       0.70270292       0.46859651 </v>
    <v>       0.71698836       0.99760131       0.40520345 </v>
    <v>       0.77163908       0.99631581       0.40938864 </v>
    <v>       0.00174748       0.20241713       0.40994691 </v>
    <v>       0.00226754       0.25726214       0.40650683 </v>
    <v>       0.97513826       0.50441230       0.43770345 </v>
    <v>       0.46960877       0.96749576       0.43333854 </v>
    <v>       0.68572219       0.98465700       0.46086729 </v>
    <v>       0.99112049       0.28789708       0.46337065 </v>
    <v>       0.62866617       0.98732582       0.45558301 </v>
    <v>       0.99264250       0.34515885       0.45861366 </v>
    <v>       0.98028203       0.53611427       0.49490957 </v>
    <v>       0.43774823       0.97451449       0.48998947 </v>
    <v>       0.09001754       0.12081676       0.48662245 </v>
    <v>       0.12818225       0.08330179       0.49613435 </v>
    <v>       0.10275194       0.03291434       0.50072100 </v>
    <v>       0.04005400       0.09457139       0.48427831 </v>
    <v>       0.99066786       0.11814219       0.47535572 </v>
    <v>       0.94203278       0.09158441       0.47213502 </v>
    <v>       0.88138039       0.03098239       0.47134533 </v>
    <v>       0.85418792       0.08128165       0.46407254 </v>
    <v>       0.89211175       0.11905876       0.46418437 </v>
    <v>       0.85494938       0.98209300       0.47507499 </v>
    <v>       0.87914519       0.93297794       0.48523695 </v>
    <v>       0.94181879       0.87116817       0.50172502 </v>
    <v>       0.89172071       0.84510597       0.49957118 </v>
    <v>       0.85372898       0.88258916       0.48900359 </v>
    <v>       0.99114342       0.84747352       0.51190124 </v>
    <v>       0.03989296       0.87408963       0.51523559 </v>
    <v>       0.10049167       0.93482981       0.51372774 </v>
    <v>       0.12775987       0.88490359       0.52340525 </v>
    <v>       0.09001458       0.84695083       0.52378797 </v>
    <v>       0.12685276       0.98370472       0.51012211 </v>
    <v>       0.18532756       0.98401708       0.51559043 </v>
    <v>       0.29611367       0.98588918       0.52409420 </v>
    <v>       0.26500936       0.00529514       0.57675669 </v>
    <v>       0.21034691       0.00453177       0.57248945 </v>
    <v>       0.99112585       0.78901105       0.51841591 </v>
    <v>       0.99072574       0.67806215       0.52922623 </v>
    <v>       0.00471256       0.70976542       0.58414443 </v>
    <v>       0.00499000       0.76447167       0.57881640 </v>
    <v>       0.79653499       0.98215012       0.46942911 </v>
    <v>       0.76512807       0.96877593       0.52495283 </v>
    <v>       0.71066867       0.96999116       0.52095706 </v>
    <v>       0.99036330       0.17690726       0.47045696 </v>
    <v>       0.97910558       0.20754861       0.52733233 </v>
    <v>       0.97931887       0.26219202       0.52400941 </v>
    <v>       0.99118212       0.62095553       0.53590946 </v>
    <v>       0.35317484       0.98785227       0.52961822 </v>
    <v>       0.98137974       0.42912795       0.50105451 </v>
    <v>       0.98574136       0.46182272       0.55950187 </v>
    <v>       0.99498434       0.47119727       0.67692691 </v>
    <v>       0.54444287       0.97610554       0.49677952 </v>
    <v>       0.51159357       0.98275867       0.55463059 </v>
    <v>       0.50203276       0.99652319       0.67131563 </v>
    <v>       0.99080608       0.43753841       0.61916684 </v>
    <v>       0.53573023       0.99041038       0.61393321 </v>
    <v>       0.97595520       0.45188649       0.44106659 </v>
    <v>       0.52205663       0.96856613       0.43691708 </v>
    <v>       0.97952427       0.59041337       0.48628476 </v>
    <v>       0.38354468       0.97277395       0.48145075 </v>
    <v>       0.04976336       0.04171004       0.49301026 </v>
    <v>       0.93463727       0.03814092       0.47621999 </v>
    <v>       0.93217858       0.92404319       0.49299873 </v>
    <v>       0.04719949       0.92736297       0.50918425 </v>
    <v>       0.98530946       0.51376271       0.55606240 </v>
    <v>       0.98118749       0.37493268       0.50894907 </v>
    <v>       0.45978072       0.98197213       0.55094906 </v>
    <v>       0.59840986       0.97549908       0.50524771 </v>
    <v>       0.01128285       0.27688740       0.35926045 </v>
    <v>       0.01022347       0.17890169       0.36558553 </v>
    <v>       0.79560318       0.00637833       0.36598257 </v>
    <v>       0.69799688       0.00873647       0.35829653 </v>
    <v>       0.96655184       0.77612910       0.41635866 </v>
    <v>       0.96633144       0.67799551       0.42603990 </v>
    <v>       0.29522221       0.95029059       0.42628710 </v>
    <v>       0.19711271       0.94834367       0.41875725 </v>
    <v>       0.97013398       0.52280031       0.38876293 </v>
    <v>       0.45146070       0.96070444       0.38461681 </v>
    <v>       0.61224811       0.00039320       0.40725638 </v>
    <v>       0.00442135       0.36214912       0.41004979 </v>
    <v>       0.97090609       0.28616801       0.56795723 </v>
    <v>       0.97033756       0.18769955       0.57444193 </v>
    <v>       0.09538028       0.16300653       0.48129691 </v>
    <v>       0.17030733       0.08940754       0.49961722 </v>
    <v>       0.02175647       0.01288159       0.49360232 </v>
    <v>       0.96023587       0.95282219       0.49236353 </v>
    <v>       0.88712163       0.16141115       0.45992029 </v>
    <v>       0.81197685       0.08672134       0.46013086 </v>
    <v>       0.78430966       0.95816806       0.57185178 </v>
    <v>       0.68624240       0.96039325       0.56408970 </v>
    <v>       0.81170868       0.87638744       0.48422495 </v>
    <v>       0.88602884       0.80303007       0.50559168 </v>
    <v>       0.16992245       0.87983691       0.52884503 </v>
    <v>       0.09536862       0.80472802       0.52888419 </v>
    <v>       0.01570449       0.78875413       0.62171079 </v>
    <v>       0.01533207       0.69104352       0.63142365 </v>
    <v>       0.18650266       0.01965463       0.61354895 </v>
    <v>       0.28415224       0.02115019       0.62133128 </v>
    <v>       0.00230415       0.60477464       0.58512725 </v>
    <v>       0.36951885       0.00319402       0.57690215 </v>
    <v>       0.99790334       0.44427164       0.71952037 </v>
    <v>       0.03016669       0.49625960       0.67367879 </v>
    <v>       0.96016677       0.49653203       0.68165608 </v>
    <v>       0.52882576       0.00147877       0.71368915 </v>
    <v>       0.47664705       0.03126399       0.66574268 </v>
    <v>       0.47709398       0.96155454       0.67826595 </v>
   </varray>
  </structure>
  <varray name="forces" >
   <v>       0.00791953      -0.02214755      -0.00082010 </v>
   <v>      -0.00689166      -0.00198737      -0.00480416 </v>
   <v>      -0.00084062      -0.00105361       0.00583945 </v>
   <v>       0.00078779       0.00306631      -0.00075439 </v>
   <v>       0.01206876       0.00592245      -0.00959622 </v>
   <v>      -0.01017654       0.01850356      -0.00562228 </v>
   <v>       0.01272091       0.00151375       0.00517019 </v>
   <v>       0.00314447      -0.00006431      -0.00284378 </v>
   <v>      -0.00094979      -0.01019930      -0.00004655 </v>
   <v>       0.01251415      -0.00173626      -0.00372554 </v>
   <v>      -0.02457325       0.00189909      -0.00562439 </v>
   <v>       0.00100977       0.00160972      -0.00059645 </v>
   <v>       0.02947335       0.00077471      -0.02032852 </v>
   <v>       0.00119135      -0.00534365      -0.00792113 </v>
   <v>      -0.00090601       0.00782600       0.00280914 </v>
   <v>      -0.02363396      -0.00192502       0.00034315 </v>
   <v>      -0.00280043      -0.00411650       0.00497250 </v>
   <v>       0.00096936      -0.00330259      -0.00251343 </v>
   <v>      -0.00319270       0.02235731       0.01354763 </v>
   <v>       0.00651939      -0.00203670      -0.00878895 </v>
   <v>      -0.00585325       0.00265934      -0.00497358 </v>
   <v>      -0.00157900       0.00212030       0.01204315 </v>
   <v>       0.00671003       0.00675456      -0.01456653 </v>
   <v>       0.00049394       0.00307922      -0.00232169 </v>
   <v>      -0.00182140       0.00420851      -0.00089570 </v>
   <v>      -0.02749482       0.00473755      -0.00541951 </v>
   <v>       0.00623048      -0.01478720       0.01659131 </v>
   <v>      -0.01007812      -0.00161971      -0.00376063 </v>
   <v>       0.01126185      -0.00377053       0.00266018 </v>
   <v>      -0.00072487       0.00452014      -0.00060478 </v>
   <v>       0.00186158      -0.00352737      -0.00203261 </v>
   <v>       0.00365048      -0.00886379       0.00512654 </v>
   <v>       0.00483788      -0.01433498      -0.02022331 </v>
   <v>      -0.00057697       0.00120909       0.00093218 </v>
   <v>      -0.00635840      -0.00385913      -0.00369860 </v>
   <v>       0.03003089      -0.00344563       0.00328235 </v>
   <v>      -0.02504646      -0.00137768       0.00181295 </v>
   <v>       0.02393422       0.00038223      -0.00494173 </v>
   <v>      -0.01643095       0.00473668       0.00625799 </v>
   <v>       0.01483370       0.01846758      -0.00170495 </v>
   <v>      -0.00125556       0.00629983      -0.00526305 </v>
   <v>      -0.00071366      -0.00507273      -0.00088500 </v>
   <v>       0.00023714       0.00303429      -0.00383645 </v>
   <v>       0.00368328      -0.00794650      -0.00052891 </v>
   <v>       0.02310126      -0.00139104       0.00063645 </v>
   <v>      -0.01243977      -0.01863306       0.00728142 </v>
   <v>       0.01075317      -0.00272841       0.00496371 </v>
   <v>       0.00123541      -0.00254629      -0.00374664 </v>
   <v>      -0.01274132       0.00624264       0.00478675 </v>
   <v>      -0.00293045      -0.00774867       0.00017047 </v>
   <v>      -0.00060724       0.00613981      -0.00222420 </v>
   <v>      -0.02491512       0.00303760       0.01946057 </v>
   <v>       0.00274156      -0.00589099       0.00650382 </v>
   <v>      -0.00111786      -0.00142113      -0.00605481 </v>
   <v>       0.00155136      -0.00297472       0.00020415 </v>
   <v>       0.02528243      -0.00131510       0.00084807 </v>
   <v>      -0.01463286      -0.00581674      -0.00073423 </v>
   <v>      -0.00310568      -0.00115304      -0.00476356 </v>
   <v>      -0.00036366      -0.00039389       0.00498323 </v>
   <v>      -0.00047413      -0.00276978       0.00445002 </v>
   <v>      -0.00274530       0.01013801      -0.00056318 </v>
   <v>      -0.01204411       0.00144330      -0.00601268 </v>
   <v>       0.00031567      -0.00515855       0.00281102 </v>
   <v>       0.02947325      -0.00272912      -0.01615350 </v>
   <v>      -0.00210812       0.00122856      -0.00051826 </v>
   <v>      -0.00087229      -0.00298221      -0.00211828 </v>
   <v>      -0.00799392       0.00572809       0.00405191 </v>
   <v>      -0.00185785       0.00447224      -0.00448757 </v>
   <v>      -0.00047805       0.00342467       0.00057487 </v>
   <v>      -0.00086933       0.01162407       0.00582911 </v>
   <v>       0.01029775       0.00349315       0.00917037 </v>
   <v>      -0.03215991       0.00560332       0.01945784 </v>
   <v>       0.00175949      -0.00154851       0.00139445 </v>
   <v>       0.00541907      -0.00055808       0.00117903 </v>
   <v>      -0.00051067       0.00154108       0.00101016 </v>
   <v>       0.00307577      -0.00324758       0.00497081 </v>
   <v>       0.00026969      -0.00122510       0.00055849 </v>
   <v>       0.00252790      -0.00153326       0.00011389 </v>
   <v>      -0.00108645       0.00331223      -0.00073406 </v>
   <v>       0.00241372       0.00080725       0.00040207 </v>
   <v>       0.00079116       0.00057838      -0.00140022 </v>
   <v>      -0.00091640      -0.00327918      -0.00353431 </v>
   <v>       0.00045211      -0.00284405      -0.00070696 </v>
   <v>       0.00043089       0.00138695       0.00038886 </v>
   <v>      -0.00110207       0.00236072       0.00234885 </v>
   <v>      -0.00201804       0.00213745      -0.00336658 </v>
   <v>      -0.00093928       0.00467577      -0.00026645 </v>
   <v>      -0.00511575      -0.00118858      -0.00264965 </v>
   <v>       0.00026816      -0.00116932      -0.00046531 </v>
   <v>      -0.00034747      -0.00031580      -0.00119949 </v>
   <v>       0.00096707      -0.00259996      -0.00012036 </v>
   <v>       0.00372473      -0.00106946       0.00348006 </v>
   <v>      -0.00148627      -0.00200382       0.00228641 </v>
   <v>      -0.00116844      -0.00000390       0.00092589 </v>
   <v>      -0.00406085      -0.00074362      -0.00179318 </v>
   <v>      -0.00127008       0.00143535      -0.00162717 </v>
   <v>      -0.00180650       0.00117493       0.00204199 </v>
   <v>       0.00085161       0.00079472       0.00021188 </v>
   <v>       0.00079603       0.00365297       0.00315991 </v>
   <v>       0.00097020      -0.00046833       0.00407696 </v>
   <v>      -0.00078477       0.00081617       0.00278033 </v>
   <v>       0.00066798      -0.00230798       0.00587398 </v>
   <v>      -0.00101228       0.00077697       0.00107968 </v>
   <v>      -0.00265310      -0.00337333      -0.00384502 </v>
   <v>      -0.00123935      -0.00017005      -0.00030921 </v>
   <v>      -0.00082742       0.00303795      -0.00005301 </v>
   <v>       0.00360931      -0.00122798       0.00016551 </v>
   <v>       0.00213875       0.00191411       0.00248007 </v>
   <v>       0.00230868      -0.00077812       0.00144322 </v>
   <v>       0.00042212       0.00116616      -0.00085420 </v>
  </varray>
  <varray name="stress" >
   <v>      -0.03487423      -0.00505882      -0.01183722 </v>
   <v>      -0.00505882       0.00662309       0.00298262 </v>
   <v>      -0.01183722       0.00298261      -0.16459503 </v>
  </varray>
  <energy>
   <i name="e_fr_energy">   -773.00558780 </i>
   <i name="e_wo_entrp">   -773.00558780 </i>
   <i name="e_0_energy">     -0.00000000 </i>
  </energy>
  <time name="totalsc"> 3181.26 3218.84</time>
  <eigenvalues>
   <array>
    <dimension dim="1">band</dimension>
    <dimension dim="2">kpoint</dimension>
    <dimension dim="3">spin</dimension>
    <field>eigene</field>
    <field>occ</field>
    <set>
     <set comment="spin 1">
      <set comment="kpoint 1">
       <r>  -26.8647    1.0000 </r>
       <r>  -26.8606    1.0000 </r>
       <r>  -24.4798    1.0000 </r>
       <r>  -24.4420    1.0000 </r>
       <r>  -24.3282    1.0000 </r>
       <r>  -24.3207    1.0000 </r>
       <r>  -23.4197    1.0000 </r>
       <r>  -23.4141    1.0000 </r>
       <r>  -23.2242    1.0000 </r>
       <r>  -23.1551    1.0000 </r>
       <r>  -22.4735    1.0000 </r>
       <r>  -22.4696    1.0000 </r>
       <r>  -21.7799    1.0000 </r>
       <r>  -21.7746    1.0000 </r>
       <r>  -21.4266    1.0000 </r>
       <r>  -21.3284    1.0000 </r>
       <r>  -21.3229    1.0000 </r>
       <r>  -21.2901    1.0000 </r>
       <r>  -20.3314    1.0000 </r>
       <r>  -20.0293    1.0000 </r>
       <r>  -19.9527    1.0000 </r>
       <r>  -19.6593    1.0000 </r>
       <r>  -19.3331    1.0000 </r>
       <r>  -19.2139    1.0000 </r>
       <r>  -19.0103    1.0000 </r>
       <r>  -18.9083    1.0000 </r>
       <r>  -18.6261    1.0000 </r>
       <r>  -18.4895    1.0000 </r>
       <r>  -18.4133    1.0000 </r>
       <r>  -18.3855    1.0000 </r>
       <r>  -18.3616    1.0000 </r>
       <r>  -18.3489    1.0000 </r>
       <r>  -18.3317    1.0000 </r>
       <r>  -18.0651    1.0000 </r>
       <r>  -18.0042    1.0000 </r>
       <r>  -17.8987    1.0000 </r>
       <r>  -17.5904    1.0000 </r>
       <r>  -17.3841    1.0000 </r>
       <r>  -17.3784    1.0000 </r>
       <r>  -16.6781    1.0000 </r>
       <r>  -16.4371    1.0000 </r>
       <r>  -16.3262    1.0000 </r>
       <r>  -16.1785    1.0000 </r>
       <r>  -15.4341    1.0000 </r>
       <r>  -15.3830    1.0000 </r>
       <r>  -15.2886    1.0000 </r>
       <r>  -15.1788    1.0000 </r>
       <r>  -15.1475    1.0000 </r>
       <r>  -15.0067    1.0000 </r>
       <r>  -14.9150    1.0000 </r>
       <r>  -14.8792    1.0000 </r>
       <r>  -14.7964    1.0000 </r>
       <r>  -14.6939    1.0000 </r>
       <r>  -14.5311    1.0000 </r>
       <r>  -14.4187    1.0000 </r>
       <r>  -14.3479    1.0000 </r>
       <r>  -14.1747    1.0000 </r>
       <r>  -14.0270    1.0000 </r>
       <r>  -13.9800    1.0000 </r>
       <r>  -13.8007    1.0000 </r>
       <r>  -13.7785    1.0000 </r>
       <r>  -13.6201    1.0000 </r>
       <r>  -13.5086    1.0000 </r>
       <r>  -13.2698    1.0000 </r>
       <r>  -13.1287    1.0000 </r>
       <r>  -13.0636    1.0000 </r>
       <r>  -13.0343    1.0000 </r>
       <r>  -12.8169    1.0000 </r>
       <r>  -12.8070    1.0000 </r>
       <r>  -12.5876    1.0000 </r>
       <r>  -12.4465    1.0000 </r>
       <r>  -12.3773    1.0000 </r>
       <r>  -12.2539    1.0000 </r>
       <r>  -12.2366    1.0000 </r>
       <r>  -12.0874    1.0000 </r>
       <r>  -12.0378    1.0000 </r>
       <r>  -11.8866    1.0000 </r>
       <r>  -11.8409    1.0000 </r>
       <r>  -11.6529    1.0000 </r>
       <r>  -11.4907    1.0000 </r>
       <r>  -11.4022    1.0000 </r>
       <r>  -11.3739    1.0000 </r>
       <r>  -11.2479    1.0000 </r>
       <r>  -11.0745    1.0000 </r>
       <r>  -10.9418    1.0000 </r>
       <r>  -10.8541    1.0000 </r>
       <r>  -10.8157    1.0000 </r>
       <r>  -10.7827    1.0000 </r>
       <r>  -10.7517    1.0000 </r>
       <r>  -10.7013    1.0000 </r>
       <r>  -10.6327    1.0000 </r>
       <r>  -10.5954    1.0000 </r>
       <r>  -10.5846    1.0000 </r>
       <r>  -10.4757    1.0000 </r>
       <r>  -10.3707    1.0000 </r>
       <r>  -10.3510    1.0000 </r>
       <r>  -10.3252    1.0000 </r>
       <r>  -10.2934    1.0000 </r>
       <r>  -10.2386    1.0000 </r>
       <r>  -10.2314    1.0000 </r>
       <r>  -10.0741    1.0000 </r>
       <r>  -10.0653    1.0000 </r>
       <r>  -10.0616    1.0000 </r>
       <r>  -10.0383    1.0000 </r>
       <r>  -10.0367    1.0000 </r>
       <r>  -10.0022    1.0000 </r>
       <r>   -9.9813    1.0000 </r>
       <r>   -9.9367    1.0000 </r>
       <r>   -9.9137    1.0000 </r>
       <r>   -9.9055    1.0000 </r>
       <r>   -9.7658    1.0000 </r>
       <r>   -9.6572    1.0000 </r>
       <r>   -9.5890    1.0000 </r>
       <r>   -9.5122    1.0000 </r>
       <r>   -9.4856    1.0000 </r>
       <r>   -9.3797    1.0000 </r>
       <r>   -9.3091    1.0000 </r>
       <r>   -9.2970    1.0000 </r>
       <r>   -9.2367    1.0000 </r>
       <r>   -9.1869    1.0000 </r>
       <r>   -8.9469    1.0000 </r>
       <r>   -8.9265    1.0000 </r>
       <r>   -8.7875    1.0000 </r>
       <r>   -8.6811    1.0000 </r>
       <r>   -8.5511    1.0000 </r>
       <r>   -8.5010    1.0000 </r>
       <r>   -8.4033    1.0000 </r>
       <r>   -8.3000    1.0000 </r>
       <r>   -8.2846    1.0000 </r>
       <r>   -8.2457    1.0000 </r>
       <r>   -8.2193    1.0000 </r>
       <r>   -8.1725    1.0000 </r>
       <r>   -8.1682    1.0000 </r>
       <r>   -8.1554    1.0000 </r>
       <r>   -8.0799    1.0000 </r>
       <r>   -8.0715    1.0000 </r>
       <r>   -8.0607    1.0000 </r>
       <r>   -8.0479    1.0000 </r>
       <r>   -7.8570    1.0000 </r>
       <r>   -7.8267    1.0000 </r>
       <r>   -7.6038    1.0000 </r>
       <r>   -7.1072    1.0000 </r>
       <r>   -7.1030    1.0000 </r>
       <r>   -6.8731    1.0000 </r>
       <r>   -6.7836    1.0000 </r>
       <r>   -6.7796    1.0000 </r>
       <r>   -6.6964    1.0000 </r>
       <r>   -6.3771    1.0000 </r>
       <r>   -6.3349    1.0000 </r>
       <r>   -6.3109    1.0000 </r>
       <r>   -6.3013    1.0000 </r>
       <r>   -6.2728    1.0000 </r>
       <r>   -6.2482    1.0000 </r>
       <r>   -6.2403    1.0000 </r>
       <r>   -6.2021    1.0000 </r>
       <r>   -6.0489    1.0000 </r>
       <r>   -6.0449    1.0000 </r>
       <r>   -6.0251    1.0000 </r>
       <r>   -5.9870    1.0000 </r>
       <r>   -5.9387    1.0000 </r>
       <r>   -5.9349    1.0000 </r>
       <r>   -5.8693    1.0000 </r>
       <r>   -5.8549    1.0000 </r>
       <r>   -5.6415    1.0000 </r>
       <r>   -5.5754    1.0000 </r>
       <r>   -5.5639    1.0000 </r>
       <r>   -5.5322    1.0000 </r>
       <r>   -4.9696    1.0000 </r>
       <r>   -4.9678    1.0000 </r>
       <r>   -4.8989    1.0000 </r>
       <r>   -4.5538    1.0000 </r>
       <r>   -3.0427    0.0000 </r>
       <r>   -3.0127    0.0000 </r>
       <r>   -2.7663    0.0000 </r>
       <r>   -2.7128    0.0000 </r>
       <r>   -2.1379    0.0000 </r>
       <r>   -2.0702    0.0000 </r>
       <r>   -1.5075    0.0000 </r>
       <r>   -1.3744    0.0000 </r>
       <r>   -1.3720    0.0000 </r>
       <r>   -1.1591    0.0000 </r>
       <r>   -1.1450    0.0000 </r>
       <r>   -1.1122    0.0000 </r>
       <r>   -1.1024    0.0000 </r>
       <r>   -0.6134    0.0000 </r>
       <r>   -0.6098    0.0000 </r>
       <r>   -0.2629    0.0000 </r>
       <r>   -0.1672    0.0000 </r>
       <r>   -0.1315    0.0000 </r>
       <r>   -0.0572    0.0000 </r>
       <r>   -0.0247    0.0000 </r>
       <r>   -0.0077    0.0000 </r>
       <r>    0.0427    0.0000 </r>
       <r>    0.1703    0.0000 </r>
       <r>    0.1942    0.0000 </r>
       <r>    0.2134    0.0000 </r>
       <r>    0.2945    0.0000 </r>
       <r>    0.3070    0.0000 </r>
       <r>    0.3776    0.0000 </r>
       <r>    0.4338    0.0000 </r>
       <r>    0.4604    0.0000 </r>
       <r>    0.4839    0.0000 </r>
       <r>    0.5177    0.0000 </r>
       <r>    0.5392    0.0000 </r>
       <r>    0.5494    0.0000 </r>
       <r>    0.5717    0.0000 </r>
       <r>    0.5897    0.0000 </r>
       <r>    0.6210    0.0000 </r>
       <r>    0.6489    0.0000 </r>
       <r>    0.6831    0.0000 </r>
       <r>    0.7026    0.0000 </r>
       <r>    0.7103    0.0000 </r>
       <r>    0.7527    0.0000 </r>
       <r>    0.7587    0.0000 </r>
       <r>    0.7753    0.0000 </r>
       <r>    0.8339    0.0000 </r>
       <r>    0.8433    0.0000 </r>
       <r>    0.8770    0.0000 </r>
       <r>    0.8957    0.0000 </r>
       <r>    0.9153    0.0000 </r>
       <r>    0.9342    0.0000 </r>
       <r>    0.9498    0.0000 </r>
       <r>    0.9769    0.0000 </r>
       <r>    0.9974    0.0000 </r>
       <r>    1.0175    0.0000 </r>
       <r>    1.0358    0.0000 </r>
       <r>    1.0466    0.0000 </r>
       <r>    1.0548    0.0000 </r>
       <r>    1.0684    0.0000 </r>
       <r>    1.0768    0.0000 </r>
       <r>    1.0959    0.0000 </r>
       <r>    1.1191    0.0000 </r>
       <r>    1.1927    0.0000 </r>
       <r>    1.2227    0.0000 </r>
       <r>    1.2462    0.0000 </r>
       <r>    1.2613    0.0000 </r>
       <r>    1.2677    0.0000 </r>
       <r>    1.2850    0.0000 </r>
       <r>    1.2893    0.0000 </r>
       <r>    1.3418    0.0000 </r>
      </set>
      <set comment="kpoint 2">
       <r>  -26.8647    1.0000 </r>
       <r>  -26.8606    1.0000 </r>
       <r>  -24.4798    1.0000 </r>
       <r>  -24.4420    1.0000 </r>
       <r>  -24.3282    1.0000 </r>
       <r>  -24.3207    1.0000 </r>
       <r>  -23.4197    1.0000 </r>
       <r>  -23.4141    1.0000 </r>
       <r>  -23.2242    1.0000 </r>
       <r>  -23.1551    1.0000 </r>
       <r>  -22.4735    1.0000 </r>
       <r>  -22.4696    1.0000 </r>
       <r>  -21.7799    1.0000 </r>
       <r>  -21.7746    1.0000 </r>
       <r>  -21.4266    1.0000 </r>
       <r>  -21.3285    1.0000 </r>
       <r>  -21.3230    1.0000 </r>
       <r>  -21.2901    1.0000 </r>
       <r>  -20.3315    1.0000 </r>
       <r>  -20.0292    1.0000 </r>
       <r>  -19.9525    1.0000 </r>
       <r>  -19.6595    1.0000 </r>
       <r>  -19.3331    1.0000 </r>
       <r>  -19.2141    1.0000 </r>
       <r>  -19.0100    1.0000 </r>
       <r>  -18.9083    1.0000 </r>
       <r>  -18.6258    1.0000 </r>
       <r>  -18.4892    1.0000 </r>
       <r>  -18.4133    1.0000 </r>
       <r>  -18.3855    1.0000 </r>
       <r>  -18.3616    1.0000 </r>
       <r>  -18.3489    1.0000 </r>
       <r>  -18.3317    1.0000 </r>
       <r>  -18.0662    1.0000 </r>
       <r>  -18.0054    1.0000 </r>
       <r>  -17.8967    1.0000 </r>
       <r>  -17.5904    1.0000 </r>
       <r>  -17.3845    1.0000 </r>
       <r>  -17.3776    1.0000 </r>
       <r>  -16.6785    1.0000 </r>
       <r>  -16.4393    1.0000 </r>
       <r>  -16.3243    1.0000 </r>
       <r>  -16.1777    1.0000 </r>
       <r>  -15.4362    1.0000 </r>
       <r>  -15.3830    1.0000 </r>
       <r>  -15.2873    1.0000 </r>
       <r>  -15.1789    1.0000 </r>
       <r>  -15.1473    1.0000 </r>
       <r>  -15.0068    1.0000 </r>
       <r>  -14.9149    1.0000 </r>
       <r>  -14.8791    1.0000 </r>
       <r>  -14.7964    1.0000 </r>
       <r>  -14.6940    1.0000 </r>
       <r>  -14.5312    1.0000 </r>
       <r>  -14.4187    1.0000 </r>
       <r>  -14.3479    1.0000 </r>
       <r>  -14.1745    1.0000 </r>
       <r>  -14.0272    1.0000 </r>
       <r>  -13.9801    1.0000 </r>
       <r>  -13.8019    1.0000 </r>
       <r>  -13.7771    1.0000 </r>
       <r>  -13.6201    1.0000 </r>
       <r>  -13.5087    1.0000 </r>
       <r>  -13.2698    1.0000 </r>
       <r>  -13.1287    1.0000 </r>
       <r>  -13.0636    1.0000 </r>
       <r>  -13.0343    1.0000 </r>
       <r>  -12.8169    1.0000 </r>
       <r>  -12.8070    1.0000 </r>
       <r>  -12.5877    1.0000 </r>
       <r>  -12.4465    1.0000 </r>
       <r>  -12.3774    1.0000 </r>
       <r>  -12.2543    1.0000 </r>
       <r>  -12.2361    1.0000 </r>
       <r>  -12.0875    1.0000 </r>
       <r>  -12.0377    1.0000 </r>
       <r>  -11.8865    1.0000 </r>
       <r>  -11.8408    1.0000 </r>
       <r>  -11.6529    1.0000 </r>
       <r>  -11.4909    1.0000 </r>
       <r>  -11.4021    1.0000 </r>
       <r>  -11.3739    1.0000 </r>
       <r>  -11.2481    1.0000 </r>
       <r>  -11.0742    1.0000 </r>
       <r>  -10.9419    1.0000 </r>
       <r>  -10.8541    1.0000 </r>
       <r>  -10.8157    1.0000 </r>
       <r>  -10.7827    1.0000 </r>
       <r>  -10.7516    1.0000 </r>
       <r>  -10.7011    1.0000 </r>
       <r>  -10.6327    1.0000 </r>
       <r>  -10.5954    1.0000 </r>
       <r>  -10.5847    1.0000 </r>
       <r>  -10.4757    1.0000 </r>
       <r>  -10.3707    1.0000 </r>
       <r>  -10.3511    1.0000 </r>
       <r>  -10.3252    1.0000 </r>
       <r>  -10.2934    1.0000 </r>
       <r>  -10.2389    1.0000 </r>
       <r>  -10.2310    1.0000 </r>
       <r>  -10.0742    1.0000 </r>
       <r>  -10.0653    1.0000 </r>
       <r>  -10.0615    1.0000 </r>
       <r>  -10.0384    1.0000 </r>
       <r>  -10.0365    1.0000 </r>
       <r>  -10.0022    1.0000 </r>
       <r>   -9.9814    1.0000 </r>
       <r>   -9.9369    1.0000 </r>
       <r>   -9.9137    1.0000 </r>
       <r>   -9.9053    1.0000 </r>
       <r>   -9.7659    1.0000 </r>
       <r>   -9.6570    1.0000 </r>
       <r>   -9.5888    1.0000 </r>
       <r>   -9.5123    1.0000 </r>
       <r>   -9.4858    1.0000 </r>
       <r>   -9.3796    1.0000 </r>
       <r>   -9.3092    1.0000 </r>
       <r>   -9.2970    1.0000 </r>
       <r>   -9.2369    1.0000 </r>
       <r>   -9.1872    1.0000 </r>
       <r>   -8.9468    1.0000 </r>
       <r>   -8.9260    1.0000 </r>
       <r>   -8.7875    1.0000 </r>
       <r>   -8.6814    1.0000 </r>
       <r>   -8.5509    1.0000 </r>
       <r>   -8.5009    1.0000 </r>
       <r>   -8.4035    1.0000 </r>
       <r>   -8.3005    1.0000 </r>
       <r>   -8.2843    1.0000 </r>
       <r>   -8.2456    1.0000 </r>
       <r>   -8.2194    1.0000 </r>
       <r>   -8.1727    1.0000 </r>
       <r>   -8.1680    1.0000 </r>
       <r>   -8.1553    1.0000 </r>
       <r>   -8.0800    1.0000 </r>
       <r>   -8.0714    1.0000 </r>
       <r>   -8.0607    1.0000 </r>
       <r>   -8.0479    1.0000 </r>
       <r>   -7.8569    1.0000 </r>
       <r>   -7.8267    1.0000 </r>
       <r>   -7.6035    1.0000 </r>
       <r>   -7.1072    1.0000 </r>
       <r>   -7.1035    1.0000 </r>
       <r>   -6.8729    1.0000 </r>
       <r>   -6.7836    1.0000 </r>
       <r>   -6.7796    1.0000 </r>
       <r>   -6.6962    1.0000 </r>
       <r>   -6.3771    1.0000 </r>
       <r>   -6.3349    1.0000 </r>
       <r>   -6.3109    1.0000 </r>
       <r>   -6.3013    1.0000 </r>
       <r>   -6.2728    1.0000 </r>
       <r>   -6.2481    1.0000 </r>
       <r>   -6.2403    1.0000 </r>
       <r>   -6.2021    1.0000 </r>
       <r>   -6.0490    1.0000 </r>
       <r>   -6.0450    1.0000 </r>
       <r>   -6.0251    1.0000 </r>
       <r>   -5.9872    1.0000 </r>
       <r>   -5.9387    1.0000 </r>
       <r>   -5.9350    1.0000 </r>
       <r>   -5.8692    1.0000 </r>
       <r>   -5.8549    1.0000 </r>
       <r>   -5.6415    1.0000 </r>
       <r>   -5.5754    1.0000 </r>
       <r>   -5.5639    1.0000 </r>
       <r>   -5.5322    1.0000 </r>
       <r>   -4.9694    1.0000 </r>
       <r>   -4.9678    1.0000 </r>
       <r>   -4.8988    1.0000 </r>
       <r>   -4.5541    1.0000 </r>
       <r>   -3.0423    0.0000 </r>
       <r>   -3.0126    0.0000 </r>
       <r>   -2.7664    0.0000 </r>
       <r>   -2.7134    0.0000 </r>
       <r>   -2.1376    0.0000 </r>
       <r>   -2.0702    0.0000 </r>
       <r>   -1.5076    0.0000 </r>
       <r>   -1.3744    0.0000 </r>
       <r>   -1.3719    0.0000 </r>
       <r>   -1.1591    0.0000 </r>
       <r>   -1.1450    0.0000 </r>
       <r>   -1.1122    0.0000 </r>
       <r>   -1.1024    0.0000 </r>
       <r>   -0.6134    0.0000 </r>
       <r>   -0.6098    0.0000 </r>
       <r>   -0.2629    0.0000 </r>
       <r>   -0.1673    0.0000 </r>
       <r>   -0.1314    0.0000 </r>
       <r>   -0.0576    0.0000 </r>
       <r>   -0.0254    0.0000 </r>
       <r>   -0.0068    0.0000 </r>
       <r>    0.0431    0.0000 </r>
       <r>    0.1703    0.0000 </r>
       <r>    0.1943    0.0000 </r>
       <r>    0.2133    0.0000 </r>
       <r>    0.2940    0.0000 </r>
       <r>    0.3073    0.0000 </r>
       <r>    0.3778    0.0000 </r>
       <r>    0.4327    0.0000 </r>
       <r>    0.4612    0.0000 </r>
       <r>    0.4839    0.0000 </r>
       <r>    0.5178    0.0000 </r>
       <r>    0.5393    0.0000 </r>
       <r>    0.5490    0.0000 </r>
       <r>    0.5714    0.0000 </r>
       <r>    0.5895    0.0000 </r>
       <r>    0.6212    0.0000 </r>
       <r>    0.6494    0.0000 </r>
       <r>    0.6829    0.0000 </r>
       <r>    0.7010    0.0000 </r>
       <r>    0.7121    0.0000 </r>
       <r>    0.7524    0.0000 </r>
       <r>    0.7587    0.0000 </r>
       <r>    0.7761    0.0000 </r>
       <r>    0.8340    0.0000 </r>
       <r>    0.8432    0.0000 </r>
       <r>    0.8766    0.0000 </r>
       <r>    0.8959    0.0000 </r>
       <r>    0.9151    0.0000 </r>
       <r>    0.9331    0.0000 </r>
       <r>    0.9498    0.0000 </r>
       <r>    0.9774    0.0000 </r>
       <r>    0.9978    0.0000 </r>
       <r>    1.0177    0.0000 </r>
       <r>    1.0347    0.0000 </r>
       <r>    1.0437    0.0000 </r>
       <r>    1.0560    0.0000 </r>
       <r>    1.0688    0.0000 </r>
       <r>    1.0789    0.0000 </r>
       <r>    1.0961    0.0000 </r>
       <r>    1.1201    0.0000 </r>
[...]
       <r>   -23.2035    19.2854    17.9966 </r>
       <r>   -23.1000    19.3183    20.0000 </r>
       <r>   -22.9965     0.0000    20.0000 </r>
       <r>   -22.8929     0.0000    20.0000 </r>
       <r>   -22.7894     0.0000    20.0000 </r>
       <r>   -22.6859     0.0000    20.0000 </r>
       <r>   -22.5823     0.0000    20.0000 </r>
       <r>   -22.4788     6.1253    20.6341 </r>
       <r>   -22.3753     0.0000    24.0000 </r>
       <r>   -22.2718     0.0000    24.0000 </r>
       <r>   -22.1682     0.0000    24.0000 </r>
       <r>   -22.0647     0.0000    24.0000 </r>
       <r>   -21.9612     0.0000    24.0000 </r>
       <r>   -21.8576     0.0000    24.0000 </r>
       <r>   -21.7541    38.6051    27.9967 </r>
       <r>   -21.6506     0.0000    28.0000 </r>
       <r>   -21.5471     0.0000    28.0000 </r>
       <r>   -21.4435     0.0319    28.0033 </r>
       <r>   -21.3400    18.4112    30.6728 </r>
       <r>   -21.2365    19.3183    36.0000 </r>
       <r>   -21.1329     0.0000    36.0000 </r>
       <r>   -21.0294     0.0000    36.0000 </r>
       <r>   -20.9259     0.0000    36.0000 </r>
       <r>   -20.8223     0.0000    36.0000 </r>
       <r>   -20.7188     0.0000    36.0000 </r>
       <r>   -20.6153     0.0000    36.0000 </r>
       <r>   -20.5118     0.0000    36.0000 </r>
       <r>   -20.4082     0.0000    36.0000 </r>
       <r>   -20.3047    19.3181    38.0000 </r>
       <r>   -20.2012     0.0000    38.0000 </r>
       <r>   -20.0976     0.0000    38.0000 </r>
       <r>   -19.9941    16.3037    39.6879 </r>
       <r>   -19.8906    19.1744    41.9851 </r>
       <r>   -19.7871     0.0000    42.0000 </r>
       <r>   -19.6835    12.4333    43.2872 </r>
       <r>   -19.5800     1.2875    44.0000 </r>
       <r>   -19.4765     0.0000    44.0000 </r>
       <r>   -19.3729     0.0000    44.0000 </r>
       <r>   -19.2694    19.8229    46.0522 </r>
       <r>   -19.1659     9.6587    48.0000 </r>
       <r>   -19.0624     0.0815    48.0084 </r>
       <r>   -18.9588    14.7118    49.9898 </r>
       <r>   -18.8553    11.1072    51.1499 </r>
       <r>   -18.7518     3.6358    51.6431 </r>
       <r>   -18.6482     8.2758    52.6235 </r>
       <r>   -18.5447     9.0150    54.0000 </r>
       <r>   -18.4412     6.8816    54.7124 </r>
       <r>   -18.3377    78.2767    64.1039 </r>
       <r>   -18.2341    11.5820    67.1324 </r>
       <r>   -18.1306     6.0964    67.8645 </r>
       <r>   -18.0271    12.1025    69.4196 </r>
       <r>   -17.9235     0.0002    70.0000 </r>
       <r>   -17.8200     5.2955    70.5483 </r>
       <r>   -17.7165     9.7824    71.7128 </r>
       <r>   -17.6130     0.0052    72.0005 </r>
       <r>   -17.5094    14.8083    74.0000 </r>
       <r>   -17.4059     0.3464    74.0359 </r>
       <r>   -17.3024    12.4436    77.2883 </r>
       <r>   -17.1988     4.5076    78.0000 </r>
       <r>   -17.0953     0.0000    78.0000 </r>
       <r>   -16.9918     0.0000    78.0000 </r>
       <r>   -16.8882     0.0000    78.0000 </r>
       <r>   -16.7847     4.9549    78.5130 </r>
       <r>   -16.6812    10.3884    79.9089 </r>
       <r>   -16.5777     4.1868    80.8001 </r>
       <r>   -16.4741     6.8129    81.6387 </r>
       <r>   -16.3706     2.2537    82.0000 </r>
       <r>   -16.2671     6.6935    82.6930 </r>
       <r>   -16.1635     4.8613    83.6033 </r>
       <r>   -16.0600     6.0311    84.4577 </r>
       <r>   -15.9565    12.8770    85.9998 </r>
       <r>   -15.8530     0.0000    86.0000 </r>
       <r>   -15.7494     3.7005    86.3831 </r>
       <r>   -15.6459     4.7510    86.9919 </r>
       <r>   -15.5424     2.6072    87.4366 </r>
       <r>   -15.4388     3.4792    87.8935 </r>
       <r>   -15.3353    19.3183    90.0000 </r>
       <r>   -15.2318     6.1072    90.6323 </r>
       <r>   -15.1283    24.7759    94.5650 </r>
       <r>   -15.0247    21.5957    97.1358 </r>
       <r>   -14.9212     0.5902    98.0611 </r>
       <r>   -14.8177    26.4126   102.0012 </r>
       <r>   -14.7141    17.1649   104.6104 </r>
       <r>   -14.6106     0.0000   106.0000 </r>
       <r>   -14.5071    19.3173   107.9999 </r>
       <r>   -14.4036    19.0682   109.9741 </r>
       <r>   -14.3000    19.3183   112.0000 </r>
       <r>   -14.1965     4.2602   112.4411 </r>
       <r>   -14.0930     9.1754   114.0833 </r>
       <r>   -13.9894    19.8909   116.4260 </r>
       <r>   -13.8859     6.2949   118.6517 </r>
       <r>   -13.7824    11.2799   120.0345 </r>
       <r>   -13.6789    11.1777   121.4239 </r>
       <r>   -13.5753    19.3182   124.0000 </r>
       <r>   -13.4718    19.3183   126.0000 </r>
       <r>   -13.3683     0.0000   126.0000 </r>
       <r>   -13.2647    11.8492   127.2267 </r>
       <r>   -13.1612     0.0442   128.0046 </r>
       <r>   -13.0577    25.6684   131.4909 </r>
       <r>   -12.9542    16.4191   134.0000 </r>
       <r>   -12.8506     0.0000   134.0000 </r>
       <r>   -12.7471    38.6365   138.0000 </r>
       <r>   -12.6436     0.0000   138.0000 </r>
       <r>   -12.5400    19.3183   140.0000 </r>
       <r>   -12.4365    12.4058   141.2844 </r>
       <r>   -12.3330    19.3205   144.0002 </r>
       <r>   -12.2294    19.5037   146.2526 </r>
       <r>   -12.1259    11.2685   148.0000 </r>
       <r>   -12.0224    36.0256   151.7297 </r>
       <r>   -11.9189     0.0001   152.0000 </r>
       <r>   -11.8153    30.4671   155.1542 </r>
       <r>   -11.7118     4.8294   156.0000 </r>
       <r>   -11.6083    19.3182   158.0000 </r>
       <r>   -11.5047    12.6396   159.3086 </r>
       <r>   -11.4012     4.4900   160.4648 </r>
       <r>   -11.2977    25.3271   164.6222 </r>
       <r>   -11.1942     8.3708   166.0000 </r>
       <r>   -11.0906     0.0195   166.0020 </r>
       <r>   -10.9871    16.0985   168.0000 </r>
       <r>   -10.8836    19.3384   170.0021 </r>
       <r>   -10.7800    42.8397   175.6352 </r>
       <r>   -10.6765    26.7529   178.7697 </r>
       <r>   -10.5730    60.8663   185.9681 </r>
       <r>   -10.4695    15.8247   187.6383 </r>
       <r>   -10.3659    17.8955   189.8527 </r>
       <r>   -10.2624    45.2182   196.5481 </r>
       <r>   -10.1589    20.2838   200.0000 </r>
       <r>   -10.0553    45.9652   204.7587 </r>
       <r>    -9.9518    57.4920   214.5188 </r>
       <r>    -9.8483    31.8745   220.0000 </r>
       <r>    -9.7448    19.3136   221.9995 </r>
       <r>    -9.6412     9.8624   223.0210 </r>
       <r>    -9.5377    16.6980   225.7287 </r>
       <r>    -9.4342    26.0780   230.0000 </r>
       <r>    -9.3306    26.5059   232.7441 </r>
       <r>    -9.2271    46.4321   238.8071 </r>
       <r>    -9.1236     4.8294   240.0000 </r>
       <r>    -9.0201     0.0000   240.0000 </r>
       <r>    -8.9165    14.2432   241.4746 </r>
       <r>    -8.8130    19.9065   243.9943 </r>
       <r>    -8.7095    24.5596   247.1761 </r>
       <r>    -8.6059     2.6859   248.0114 </r>
       <r>    -8.5024    21.6233   250.5053 </r>
       <r>    -8.3989    20.0259   253.9066 </r>
       <r>    -8.2953    22.3297   256.3118 </r>
       <r>    -8.1918    42.4904   262.2990 </r>
       <r>    -8.0883    51.1572   269.2964 </r>
       <r>    -7.9848    38.6362   276.0000 </r>
       <r>    -7.8812     1.9747   276.2044 </r>
       <r>    -7.7777    29.1794   279.8543 </r>
       <r>    -7.6742     0.0000   280.0000 </r>
       <r>    -7.5706     8.3808   280.8677 </r>
       <r>    -7.4671     0.0000   282.0000 </r>
       <r>    -7.3636     0.0000   282.0000 </r>
       <r>    -7.2601     0.0000   282.0000 </r>
       <r>    -7.1565    10.9643   283.1351 </r>
       <r>    -7.0530    19.9619   286.0000 </r>
       <r>    -6.9495     0.0000   286.0000 </r>
       <r>    -6.8459    16.2202   287.6793 </r>
       <r>    -6.7424    38.6360   291.9999 </r>
       <r>    -6.6389    19.3022   293.9983 </r>
       <r>    -6.5354     0.0000   294.0000 </r>
       <r>    -6.4318     0.0000   294.0000 </r>
       <r>    -6.3283    36.3116   297.7593 </r>
       <r>    -6.2248    72.4489   307.5006 </r>
       <r>    -6.1212    14.4880   310.0000 </r>
       <r>    -6.0177    59.0289   316.1112 </r>
       <r>    -5.9142    43.1281   321.9984 </r>
       <r>    -5.8107    38.6366   326.0000 </r>
       <r>    -5.7071     0.0000   326.0000 </r>
       <r>    -5.6036    19.3190   328.0001 </r>
       <r>    -5.5001    57.9541   334.0000 </r>
       <r>    -5.3965     0.0000   334.0000 </r>
       <r>    -5.2930     0.0000   334.0000 </r>
       <r>    -5.1895     0.0000   334.0000 </r>
       <r>    -5.0860     0.0000   334.0000 </r>
       <r>    -4.9824     0.3292   334.0341 </r>
       <r>    -4.8789    32.9365   339.8432 </r>
       <r>    -4.7754     0.0000   340.0000 </r>
       <r>    -4.6718     0.0000   340.0000 </r>
       <r>    -4.5683    14.7093   341.5228 </r>
       <r>    -4.4648     0.0000   342.0000 </r>
       <r>    -4.3613     0.0000   342.0000 </r>
       <r>    -4.2577     0.0000   342.0000 </r>
       <r>    -4.1542     0.0000   342.0000 </r>
       <r>    -4.0507     0.0000   342.0000 </r>
       <r>    -3.9471     0.0000   342.0000 </r>
       <r>    -3.8436     0.0000   342.0000 </r>
       <r>    -3.7401     0.0000   342.0000 </r>
       <r>    -3.6365     0.0000   342.0000 </r>
       <r>    -3.5330     0.0000   342.0000 </r>
       <r>    -3.4295     0.0000   342.0000 </r>
       <r>    -3.3260     0.0000   342.0000 </r>
       <r>    -3.2224     0.0000   342.0000 </r>
       <r>    -3.1189     0.0000   342.0000 </r>
       <r>    -3.0154    11.7040   343.2117 </r>
       <r>    -2.9118    11.9828   345.5406 </r>
       <r>    -2.8083    13.1090   347.3572 </r>
       <r>    -2.7048    19.7407   349.9771 </r>
       <r>    -2.6013     0.0000   350.0000 </r>
       <r>    -2.4977     0.0000   350.0000 </r>
       <r>    -2.3942     0.0000   350.0000 </r>
       <r>    -2.2907     0.0000   350.0000 </r>
       <r>    -2.1871     0.0000   350.0000 </r>
       <r>    -2.0836    18.4245   351.9075 </r>
       <r>    -1.9801     0.0000   354.0000 </r>
       <r>    -1.8766     0.0000   354.0000 </r>
       <r>    -1.7730     0.0000   354.0000 </r>
       <r>    -1.6695     0.0000   354.0000 </r>
       <r>    -1.5660     0.0000   354.0000 </r>
       <r>    -1.4624    19.3183   356.0000 </r>
       <r>    -1.3589    35.5894   359.6845 </r>
       <r>    -1.2554     0.0000   360.0000 </r>
       <r>    -1.1519    14.5274   361.5040 </r>
       <r>    -1.0483    38.6365   368.0000 </r>
       <r>    -0.9448     0.0000   368.0000 </r>
       <r>    -0.8413     0.0000   368.0000 </r>
       <r>    -0.7377     0.0000   368.0000 </r>
       <r>    -0.6342     5.1838   368.5367 </r>
       <r>    -0.5307    19.3164   372.0000 </r>
       <r>    -0.4272     0.0000   372.0000 </r>
       <r>    -0.3236     0.0000   372.0000 </r>
       <r>    -0.2201    18.7068   373.9367 </r>
       <r>    -0.1166    32.7819   377.7939 </r>
       <r>    -0.0130    36.6602   382.0288 </r>
       <r>     0.0905    23.1155   384.7931 </r>
       <r>     0.1940    31.3610   388.8135 </r>
       <r>     0.2975    31.3222   394.1428 </r>
       <r>     0.4011    30.8707   399.0627 </r>
       <r>     0.5046    42.1091   404.1929 </r>
       <r>     0.6081    62.5181   413.0725 </r>
       <r>     0.7117    66.2050   421.8875 </r>
       <r>     0.8152    62.3903   430.7926 </r>
       <r>     0.9187    75.8278   440.1171 </r>
       <r>     1.0223    66.3081   449.4649 </r>
       <r>     1.1258    73.4147   459.2340 </r>
       <r>     1.2293    70.3794   468.6197 </r>
       <r>     1.3328    69.8302   478.1295 </r>
       <r>     1.4364     4.5074   480.0000 </r>
       <r>     1.5399     0.0000   480.0000 </r>
       <r>     1.6434     0.0000   480.0000 </r>
       <r>     1.7470     0.0000   480.0000 </r>
       <r>     1.8505     0.0000   480.0000 </r>
       <r>     1.9540     0.0000   480.0000 </r>
       <r>     2.0575     0.0000   480.0000 </r>
       <r>     2.1611     0.0000   480.0000 </r>
       <r>     2.2646     0.0000   480.0000 </r>
       <r>     2.3681     0.0000   480.0000 </r>
       <r>     2.4717     0.0000   480.0000 </r>
       <r>     2.5752     0.0000   480.0000 </r>
       <r>     2.6787     0.0000   480.0000 </r>
       <r>     2.7822     0.0000   480.0000 </r>
      </set>
     </set>
    </array>
   </total>
  </dos>
 </calculation>
 <structure name="finalpos" >
  <crystal>
   <varray name="basis" >
    <v>      25.43453053      -0.00745113       0.00000000 </v>
    <v>      -0.02341262      25.38494059       0.00000000 </v>
    <v>       0.00000000       0.00000000      20.00000000 </v>
   </varray>
   <i name="volume">  12913.07744064 </i>
   <varray name="rec_basis" >
    <v>       0.03931664       0.00003626       0.00000000 </v>
    <v>       0.00001154       0.03939345       0.00000000 </v>
    <v>       0.00000000       0.00000000       0.05000000 </v>
   </varray>
  </crystal>
  <varray name="positions" >
   <v>       0.21647771       0.96422338       0.46308820 </v>
   <v>       0.27095596       0.96518675       0.46704522 </v>
   <v>       0.97698372       0.75720560       0.46350597 </v>
   <v>       0.97683429       0.70270292       0.46859651 </v>
   <v>       0.71698836       0.99760131       0.40520345 </v>
   <v>       0.77163908       0.99631581       0.40938864 </v>
   <v>       0.00174748       0.20241713       0.40994691 </v>
   <v>       0.00226754       0.25726214       0.40650683 </v>
   <v>       0.97513826       0.50441230       0.43770345 </v>
   <v>       0.46960877       0.96749576       0.43333854 </v>
   <v>       0.68572219       0.98465700       0.46086729 </v>
   <v>       0.99112049       0.28789708       0.46337065 </v>
   <v>       0.62866617       0.98732582       0.45558301 </v>
   <v>       0.99264250       0.34515885       0.45861366 </v>
   <v>       0.98028203       0.53611427       0.49490957 </v>
   <v>       0.43774823       0.97451449       0.48998947 </v>
   <v>       0.09001754       0.12081676       0.48662245 </v>
   <v>       0.12818225       0.08330179       0.49613435 </v>
   <v>       0.10275194       0.03291434       0.50072100 </v>
   <v>       0.04005400       0.09457139       0.48427831 </v>
   <v>       0.99066786       0.11814219       0.47535572 </v>
   <v>       0.94203278       0.09158441       0.47213502 </v>
   <v>       0.88138039       0.03098239       0.47134533 </v>
   <v>       0.85418792       0.08128165       0.46407254 </v>
   <v>       0.89211175       0.11905876       0.46418437 </v>
   <v>       0.85494938       0.98209300       0.47507499 </v>
   <v>       0.87914519       0.93297794       0.48523695 </v>
   <v>       0.94181879       0.87116817       0.50172502 </v>
   <v>       0.89172071       0.84510597       0.49957118 </v>
   <v>       0.85372898       0.88258916       0.48900359 </v>
   <v>       0.99114342       0.84747352       0.51190124 </v>
   <v>       0.03989296       0.87408963       0.51523559 </v>
   <v>       0.10049167       0.93482981       0.51372774 </v>
   <v>       0.12775987       0.88490359       0.52340525 </v>
   <v>       0.09001458       0.84695083       0.52378797 </v>
   <v>       0.12685276       0.98370472       0.51012211 </v>
   <v>       0.18532756       0.98401708       0.51559043 </v>
   <v>       0.29611367       0.98588918       0.52409420 </v>
   <v>       0.26500936       0.00529514       0.57675669 </v>
   <v>       0.21034691       0.00453177       0.57248945 </v>
   <v>       0.99112585       0.78901105       0.51841591 </v>
   <v>       0.99072574       0.67806215       0.52922623 </v>
   <v>       0.00471256       0.70976542       0.58414443 </v>
   <v>       0.00499000       0.76447167       0.57881640 </v>
   <v>       0.79653499       0.98215012       0.46942911 </v>
   <v>       0.76512807       0.96877593       0.52495283 </v>
   <v>       0.71066867       0.96999116       0.52095706 </v>
   <v>       0.99036330       0.17690726       0.47045696 </v>
   <v>       0.97910558       0.20754861       0.52733233 </v>
   <v>       0.97931887       0.26219202       0.52400941 </v>
   <v>       0.99118212       0.62095553       0.53590946 </v>
   <v>       0.35317484       0.98785227       0.52961822 </v>
   <v>       0.98137974       0.42912795       0.50105451 </v>
   <v>       0.98574136       0.46182272       0.55950187 </v>
   <v>       0.99498434       0.47119727       0.67692691 </v>
   <v>       0.54444287       0.97610554       0.49677952 </v>
   <v>       0.51159357       0.98275867       0.55463059 </v>
   <v>       0.50203276       0.99652319       0.67131563 </v>
   <v>       0.99080608       0.43753841       0.61916684 </v>
   <v>       0.53573023       0.99041038       0.61393321 </v>
   <v>       0.97595520       0.45188649       0.44106659 </v>
   <v>       0.52205663       0.96856613       0.43691708 </v>
   <v>       0.97952427       0.59041337       0.48628476 </v>
   <v>       0.38354468       0.97277395       0.48145075 </v>
   <v>       0.04976336       0.04171004       0.49301026 </v>
   <v>       0.93463727       0.03814092       0.47621999 </v>
   <v>       0.93217858       0.92404319       0.49299873 </v>
   <v>       0.04719949       0.92736297       0.50918425 </v>
   <v>       0.98530946       0.51376271       0.55606240 </v>
   <v>       0.98118749       0.37493268       0.50894907 </v>
   <v>       0.45978072       0.98197213       0.55094906 </v>
   <v>       0.59840986       0.97549908       0.50524771 </v>
   <v>       0.01128285       0.27688740       0.35926045 </v>
   <v>       0.01022347       0.17890169       0.36558553 </v>
   <v>       0.79560318       0.00637833       0.36598257 </v>
   <v>       0.69799688       0.00873647       0.35829653 </v>
   <v>       0.96655184       0.77612910       0.41635866 </v>
   <v>       0.96633144       0.67799551       0.42603990 </v>
   <v>       0.29522221       0.95029059       0.42628710 </v>
   <v>       0.19711271       0.94834367       0.41875725 </v>
   <v>       0.97013398       0.52280031       0.38876293 </v>
   <v>       0.45146070       0.96070444       0.38461681 </v>
   <v>       0.61224811       0.00039320       0.40725638 </v>
   <v>       0.00442135       0.36214912       0.41004979 </v>
   <v>       0.97090609       0.28616801       0.56795723 </v>
   <v>       0.97033756       0.18769955       0.57444193 </v>
   <v>       0.09538028       0.16300653       0.48129691 </v>
   <v>       0.17030733       0.08940754       0.49961722 </v>
   <v>       0.02175647       0.01288159       0.49360232 </v>
   <v>       0.96023587       0.95282219       0.49236353 </v>
   <v>       0.88712163       0.16141115       0.45992029 </v>
   <v>       0.81197685       0.08672134       0.46013086 </v>
   <v>       0.78430966       0.95816806       0.57185178 </v>
   <v>       0.68624240       0.96039325       0.56408970 </v>
   <v>       0.81170868       0.87638744       0.48422495 </v>
   <v>       0.88602884       0.80303007       0.50559168 </v>
   <v>       0.16992245       0.87983691       0.52884503 </v>
   <v>       0.09536862       0.80472802       0.52888419 </v>
   <v>       0.01570449       0.78875413       0.62171079 </v>
   <v>       0.01533207       0.69104352       0.63142365 </v>
   <v>       0.18650266       0.01965463       0.61354895 </v>
   <v>       0.28415224       0.02115019       0.62133128 </v>
   <v>       0.00230415       0.60477464       0.58512725 </v>
   <v>       0.36951885       0.00319402       0.57690215 </v>
   <v>       0.99790334       0.44427164       0.71952037 </v>
   <v>       0.03016669       0.49625960       0.67367879 </v>
   <v>       0.96016677       0.49653203       0.68165608 </v>
   <v>       0.52882576       0.00147877       0.71368915 </v>
   <v>       0.47664705       0.03126399       0.66574268 </v>
   <v>       0.47709398       0.96155454       0.67826595 </v>
  </varray>
 </structure>
</modeling>
