<?xml version="1.0" encoding="ISO-8859-1"?>
<modeling>
 <generator>
  <i name="program" type="string">vasp </i>
  <i name="version" type="string">5.4.4.18Apr17-6-g9f103f2a35  </i>
  <i name="subversion" type="string">(build Jun 07 2020 16:50:00) complex            parallel </i>
  <i name="platform" type="string">LinuxIFC </i>
  <i name="date" type="string">2023 03 03 </i>
  <i name="time" type="string">01:56:25 </i>
 </generator>
 <incar>
  <i type="string" name="SYSTEM">Simulation for cell shape cell volume r</i>
  <i type="int" name="ISTART">     1</i>
  <i type="string" name="PREC">high</i>
  <i type="string" name="ALGO">48</i>
  <i type="int" name="ICHARG">    11</i>
  <i type="int" name="NELM">   200</i>
  <i type="int" name="IBRION">    -1</i>
  <i name="EDIFF">      0.00001000</i>
  <i name="EDIFFG">     -0.01000000</i>
  <i type="int" name="NSW">     0</i>
  <i type="int" name="ISIF">     2</i>
  <i name="ENCUT">    500.00000000</i>
  <i name="POTIM">      0.30000000</i>
  <i type="string" name="LREAL">A</i>
  <i type="int" name="ISMEAR">     0</i>
  <i name="SIGMA">      0.01000000</i>
  <i type="int" name="NWRITE">     0</i>
  <i type="logical" name="LWAVE"> F  </i>
  <i type="logical" name="LCHARG"> F  </i>
  <v type="int" name="KPOINT_BSE">    -1     0     0     0</v>
  <i type="int" name="NELM">   200</i>
  <i type="string" name="GGA">PE</i>
 </incar>
 <structure name="primitive_cell" >
  <crystal>
   <varray name="basis" >
    <v>      21.68139555       0.06684725       0.00000000 </v>
    <v>     -10.78385089      18.67842190       0.00000000 </v>
    <v>       0.00000000       0.00000000      20.00000000 </v>
   </varray>
   <i name="volume">   8113.90248362 </i>
   <varray name="rec_basis" >
    <v>       0.04604054       0.02658117       0.00000000 </v>
    <v>      -0.00016477       0.05344258       0.00000000 </v>
    <v>       0.00000000       0.00000000       0.05000000 </v>
   </varray>
  </crystal>
  <varray name="positions" >
   <v>      -0.35764272       0.17329606      -0.47279824 </v>
   <v>      -0.39249549       0.19024489      -0.48399254 </v>
   <v>      -0.36313837       0.26262526      -0.48792610 </v>
   <v>      -0.46784942       0.14290513      -0.47254653 </v>
   <v>      -0.29125539       0.30009846      -0.48886408 </v>
   <v>      -0.48710320       0.06707230      -0.48795484 </v>
   <v>      -0.48370079       0.14491406      -0.42057989 </v>
   <v>      -0.49714861       0.16030113       0.49461739 </v>
   <v>      -0.40705726       0.28952961      -0.48944052 </v>
   <v>      -0.48395843       0.04374187       0.44656014 </v>
   <v>       0.49343703       0.02132042      -0.43676523 </v>
   <v>      -0.46473622       0.09166375       0.39080812 </v>
   <v>      -0.26471749       0.37092185      -0.49133989 </v>
   <v>      -0.45001934       0.13125442       0.34598990 </v>
   <v>      -0.15991806       0.34039737       0.48482494 </v>
   <v>      -0.49966991      -0.02369553       0.43328835 </v>
   <v>      -0.37269998       0.36170636      -0.49228775 </v>
   <v>       0.47729265      -0.04627329      -0.45008853 </v>
   <v>      -0.15050911       0.36309931      -0.42880877 </v>
   <v>      -0.30221677       0.40560773      -0.49314475 </v>
   <v>      -0.14553256       0.38462277      -0.47971442 </v>
   <v>      -0.19263970       0.41337167      -0.49098545 </v>
   <v>       0.48105078      -0.06944067       0.48450158 </v>
   <v>       0.45691644      -0.09455796      -0.39450270 </v>
   <v>      -0.41489898       0.39199595      -0.49323145 </v>
   <v>      -0.17494393       0.46595590      -0.48263900 </v>
   <v>      -0.46677252       0.35837039      -0.48215823 </v>
   <v>      -0.06967991       0.44241849      -0.49006801 </v>
   <v>       0.46295576      -0.14497413       0.46913596 </v>
   <v>       0.49239131      -0.16186482      -0.49764194 </v>
   <v>       0.44098039      -0.13459121      -0.34990284 </v>
   <v>       0.47959901      -0.14651921       0.41737437 </v>
   <v>      -0.12227705       0.42556963       0.34038618 </v>
   <v>      -0.08604103       0.44722694       0.38765435 </v>
   <v>      -0.38541118       0.46869675      -0.48648816 </v>
   <v>      -0.02791570       0.46622059      -0.43612415 </v>
   <v>      -0.35892464       0.48862653      -0.43788760 </v>
   <v>      -0.04231551       0.47253795       0.44633726 </v>
   <v>      -0.34534089       0.49555312       0.47402842 </v>
   <v>       0.38769707      -0.19336585       0.47992538 </v>
   <v>       0.35215445      -0.17768438       0.46749875 </v>
   <v>      -0.44394033       0.48661170      -0.49255040 </v>
   <v>      -0.43387296       0.45494360       0.33521183 </v>
   <v>      -0.45355694       0.46836031       0.38458524 </v>
   <v>       0.03968684      -0.48116716      -0.44481567 </v>
   <v>       0.02521176      -0.47485644       0.43768507 </v>
   <v>       0.35976197      -0.26546584       0.48564033 </v>
   <v>      -0.47665492       0.48521399       0.44570861 </v>
   <v>      -0.46580125      -0.49684763      -0.43632014 </v>
   <v>       0.40498445      -0.29070824       0.48876534 </v>
   <v>       0.06693220      -0.45071998       0.49166793 </v>
   <v>       0.08348553      -0.45605876      -0.38619168 </v>
   <v>       0.28797461      -0.30439584       0.48665931 </v>
   <v>       0.46999331       0.49987331       0.44111822 </v>
   <v>       0.48102990      -0.48192375      -0.44095296 </v>
   <v>       0.11986382      -0.43448284      -0.33901462 </v>
   <v>       0.37216067      -0.36271269       0.49360381 </v>
   <v>       0.46752179      -0.35692951       0.48526439 </v>
   <v>       0.44783210      -0.48400460       0.49744018 </v>
   <v>       0.17403780      -0.47145864       0.48638514 </v>
   <v>       0.14232237      -0.39171036       0.48133822 </v>
   <v>       0.26294978      -0.37490631       0.49133316 </v>
   <v>       0.45870138      -0.46429666      -0.37982421 </v>
   <v>       0.14657930      -0.36995956       0.43064670 </v>
   <v>       0.41583805      -0.39125057       0.49641127 </v>
   <v>       0.19107886      -0.41861958       0.49163588 </v>
   <v>       0.15573367      -0.34792966      -0.48287766 </v>
   <v>       0.30193669      -0.40800302       0.49489355 </v>
   <v>       0.43998996      -0.45030003      -0.33018290 </v>
   <v>       0.38805413      -0.46787051       0.49165661 </v>
   <v>       0.36064176      -0.48964386       0.44376052 </v>
   <v>       0.34907297      -0.49438497      -0.46794356 </v>
  </varray>
 </structure>
 <varray name="primitive_index" >
  <v type="int" >        1 </v>
  <v type="int" >       22 </v>
  <v type="int" >       44 </v>
  <v type="int" >       72 </v>
  <v type="int" >       20 </v>
  <v type="int" >       70 </v>
  <v type="int" >       17 </v>
  <v type="int" >       18 </v>
  <v type="int" >       19 </v>
  <v type="int" >       69 </v>
  <v type="int" >       35 </v>
  <v type="int" >       71 </v>
  <v type="int" >       45 </v>
  <v type="int" >       42 </v>
  <v type="int" >       16 </v>
  <v type="int" >       41 </v>
  <v type="int" >       43 </v>
  <v type="int" >       58 </v>
  <v type="int" >       15 </v>
  <v type="int" >       21 </v>
  <v type="int" >       68 </v>
  <v type="int" >       23 </v>
  <v type="int" >       57 </v>
  <v type="int" >       59 </v>
  <v type="int" >       24 </v>
  <v type="int" >        2 </v>
  <v type="int" >        3 </v>
  <v type="int" >       66 </v>
  <v type="int" >       60 </v>
  <v type="int" >       12 </v>
  <v type="int" >       36 </v>
  <v type="int" >       11 </v>
  <v type="int" >       40 </v>
  <v type="int" >       67 </v>
  <v type="int" >       64 </v>
  <v type="int" >       33 </v>
  <v type="int" >       13 </v>
  <v type="int" >       65 </v>
  <v type="int" >       14 </v>
  <v type="int" >       28 </v>
  <v type="int" >        4 </v>
  <v type="int" >       62 </v>
  <v type="int" >       38 </v>
  <v type="int" >       63 </v>
  <v type="int" >       54 </v>
  <v type="int" >       39 </v>
  <v type="int" >       47 </v>
  <v type="int" >       61 </v>
  <v type="int" >       31 </v>
  <v type="int" >       25 </v>
  <v type="int" >       53 </v>
  <v type="int" >       55 </v>
  <v type="int" >       26 </v>
  <v type="int" >       37 </v>
  <v type="int" >       50 </v>
  <v type="int" >       34 </v>
  <v type="int" >       46 </v>
  <v type="int" >        6 </v>
  <v type="int" >       49 </v>
  <v type="int" >        5 </v>
  <v type="int" >       56 </v>
  <v type="int" >       48 </v>
  <v type="int" >       51 </v>
  <v type="int" >        9 </v>
  <v type="int" >       30 </v>
  <v type="int" >       29 </v>
  <v type="int" >       10 </v>
  <v type="int" >       27 </v>
  <v type="int" >       32 </v>
  <v type="int" >       52 </v>
  <v type="int" >        7 </v>
  <v type="int" >        8 </v>
 </varray>
 <kpoints>
  <generation param="listgenerated">
   <i name="divisions" type="int">      20 </i>
   <v>       0.00000000       0.00000000       0.00000000 </v>
   <v>       0.50000000       0.00000000       0.00000000 </v>
   <v>       0.33333333       0.33333333       0.00000000 </v>
   <v>       0.00000000       0.00000000       0.00000000 </v>
  </generation>
  <varray name="kpointlist" >
   <v>       0.00000000       0.00000000       0.00000000 </v>
   <v>       0.02631579       0.00000000       0.00000000 </v>
   <v>       0.05263158       0.00000000       0.00000000 </v>
   <v>       0.07894737       0.00000000       0.00000000 </v>
   <v>       0.10526316       0.00000000       0.00000000 </v>
   <v>       0.13157895       0.00000000       0.00000000 </v>
   <v>       0.15789474       0.00000000       0.00000000 </v>
   <v>       0.18421053       0.00000000       0.00000000 </v>
   <v>       0.21052632       0.00000000       0.00000000 </v>
   <v>       0.23684211       0.00000000       0.00000000 </v>
   <v>       0.26315789       0.00000000       0.00000000 </v>
   <v>       0.28947368       0.00000000       0.00000000 </v>
   <v>       0.31578947       0.00000000       0.00000000 </v>
   <v>       0.34210526       0.00000000       0.00000000 </v>
   <v>       0.36842105       0.00000000       0.00000000 </v>
   <v>       0.39473684       0.00000000       0.00000000 </v>
   <v>       0.42105263       0.00000000       0.00000000 </v>
   <v>       0.44736842       0.00000000       0.00000000 </v>
   <v>       0.47368421       0.00000000       0.00000000 </v>
   <v>       0.50000000       0.00000000       0.00000000 </v>
   <v>       0.50000000       0.00000000       0.00000000 </v>
   <v>       0.49122807       0.01754386       0.00000000 </v>
   <v>       0.48245614       0.03508772       0.00000000 </v>
   <v>       0.47368421       0.05263158       0.00000000 </v>
   <v>       0.46491228       0.07017544       0.00000000 </v>
   <v>       0.45614035       0.08771930       0.00000000 </v>
   <v>       0.44736842       0.10526316       0.00000000 </v>
   <v>       0.43859649       0.12280702       0.00000000 </v>
   <v>       0.42982456       0.14035088       0.00000000 </v>
   <v>       0.42105263       0.15789474       0.00000000 </v>
   <v>       0.41228070       0.17543860       0.00000000 </v>
   <v>       0.40350877       0.19298246       0.00000000 </v>
   <v>       0.39473684       0.21052632       0.00000000 </v>
   <v>       0.38596491       0.22807018       0.00000000 </v>
   <v>       0.37719298       0.24561404       0.00000000 </v>
   <v>       0.36842105       0.26315789       0.00000000 </v>
   <v>       0.35964912       0.28070175       0.00000000 </v>
   <v>       0.35087719       0.29824561       0.00000000 </v>
   <v>       0.34210526       0.31578947       0.00000000 </v>
   <v>       0.33333333       0.33333333       0.00000000 </v>
   <v>       0.33333333       0.33333333       0.00000000 </v>
   <v>       0.31578947       0.31578947       0.00000000 </v>
   <v>       0.29824561       0.29824561       0.00000000 </v>
   <v>       0.28070175       0.28070175       0.00000000 </v>
   <v>       0.26315789       0.26315789       0.00000000 </v>
   <v>       0.24561404       0.24561404       0.00000000 </v>
   <v>       0.22807018       0.22807018       0.00000000 </v>
   <v>       0.21052632       0.21052632       0.00000000 </v>
   <v>       0.19298246       0.19298246       0.00000000 </v>
   <v>       0.17543860       0.17543860       0.00000000 </v>
   <v>       0.15789474       0.15789474       0.00000000 </v>
   <v>       0.14035088       0.14035088       0.00000000 </v>
   <v>       0.12280702       0.12280702       0.00000000 </v>
   <v>       0.10526316       0.10526316       0.00000000 </v>
   <v>       0.08771930       0.08771930       0.00000000 </v>
   <v>       0.07017544       0.07017544       0.00000000 </v>
   <v>       0.05263158       0.05263158       0.00000000 </v>
   <v>       0.03508772       0.03508772       0.00000000 </v>
   <v>       0.01754386       0.01754386       0.00000000 </v>
   <v>       0.00000000       0.00000000       0.00000000 </v>
  </varray>
  <varray name="weights" >
   <v>       0.01666667 </v>
   <v>       0.01666667 </v>
   <v>       0.01666667 </v>
   <v>       0.01666667 </v>
   <v>       0.01666667 </v>
   <v>       0.01666667 </v>
   <v>       0.01666667 </v>
   <v>       0.01666667 </v>
   <v>       0.01666667 </v>
   <v>       0.01666667 </v>
   <v>       0.01666667 </v>
   <v>       0.01666667 </v>
   <v>       0.01666667 </v>
   <v>       0.01666667 </v>
   <v>       0.01666667 </v>
   <v>       0.01666667 </v>
   <v>       0.01666667 </v>
   <v>       0.01666667 </v>
   <v>       0.01666667 </v>
   <v>       0.01666667 </v>
   <v>       0.01666667 </v>
   <v>       0.01666667 </v>
   <v>       0.01666667 </v>
   <v>       0.01666667 </v>
   <v>       0.01666667 </v>
   <v>       0.01666667 </v>
   <v>       0.01666667 </v>
   <v>       0.01666667 </v>
   <v>       0.01666667 </v>
   <v>       0.01666667 </v>
   <v>       0.01666667 </v>
   <v>       0.01666667 </v>
   <v>       0.01666667 </v>
   <v>       0.01666667 </v>
   <v>       0.01666667 </v>
   <v>       0.01666667 </v>
   <v>       0.01666667 </v>
   <v>       0.01666667 </v>
   <v>       0.01666667 </v>
   <v>       0.01666667 </v>
   <v>       0.01666667 </v>
   <v>       0.01666667 </v>
   <v>       0.01666667 </v>
   <v>       0.01666667 </v>
   <v>       0.01666667 </v>
   <v>       0.01666667 </v>
   <v>       0.01666667 </v>
   <v>       0.01666667 </v>
   <v>       0.01666667 </v>
   <v>       0.01666667 </v>
   <v>       0.01666667 </v>
   <v>       0.01666667 </v>
   <v>       0.01666667 </v>
   <v>       0.01666667 </v>
   <v>       0.01666667 </v>
   <v>       0.01666667 </v>
   <v>       0.01666667 </v>
   <v>       0.01666667 </v>
   <v>       0.01666667 </v>
   <v>       0.01666667 </v>
  </varray>
 </kpoints>
 <parameters>
  <separator name="general" >
   <i type="string" name="SYSTEM">Simulation for cell shape cell volume r</i>
   <i type="logical" name="LCOMPAT"> F  </i>
  </separator>
  <separator name="electronic" >
   <i type="string" name="PREC">high</i>
   <i name="ENMAX">    500.00000000</i>
   <i name="ENAUG">    644.87300000</i>
   <i name="EDIFF">      0.00001000</i>
   <i type="int" name="IALGO">    38</i>
   <i type="int" name="IWAVPR">    10</i>
   <i type="int" name="NBANDS">   176</i>
   <i name="NELECT">    258.00000000</i>
   <i type="int" name="TURBO">     0</i>
   <i type="int" name="IRESTART">     0</i>
   <i type="int" name="NREBOOT">     0</i>
   <i type="int" name="NMIN">     0</i>
   <i name="EREF">      0.00000000</i>
   <separator name="electronic smearing" >
    <i type="int" name="ISMEAR">     0</i>
    <i name="SIGMA">      0.01000000</i>
    <i name="KSPACING">      0.50000000</i>
    <i type="logical" name="KGAMMA"> T  </i>
   </separator>
   <separator name="electronic projectors" >
    <i type="logical" name="LREAL"> T  </i>
    <v name="ROPT">     -0.00040000     -0.00040000     -0.00040000</v>
    <i type="int" name="LMAXPAW">  -100</i>
    <i type="int" name="LMAXMIX">     2</i>
    <i type="logical" name="NLSPLINE"> F  </i>
   </separator>
   <separator name="electronic startup" >
    <i type="int" name="ISTART">     1</i>
    <i type="int" name="ICHARG">    11</i>
    <i type="int" name="INIWAV">     1</i>
   </separator>
   <separator name="electronic spin" >
    <i type="int" name="ISPIN">     1</i>
    <i type="logical" name="LNONCOLLINEAR"> F  </i>
    <v name="MAGMOM">      1.00000000      1.00000000      1.00000000      1.00000000      1.00000000      1.00000000      1.00000000      1.00000000      1.00000000      1.00000000      1.00000000      1.00000000      1.00000000      1.00000000      1.00000000      1.00000000      1.00000000      1.00000000      1.00000000      1.00000000
      1.00000000      1.00000000      1.00000000      1.00000000      1.00000000      1.00000000      1.00000000      1.00000000      1.00000000      1.00000000      1.00000000      1.00000000      1.00000000      1.00000000      1.00000000      1.00000000      1.00000000      1.00000000      1.00000000      1.00000000
      1.00000000      1.00000000      1.00000000      1.00000000      1.00000000      1.00000000      1.00000000      1.00000000      1.00000000      1.00000000      1.00000000      1.00000000      1.00000000      1.00000000      1.00000000      1.00000000      1.00000000      1.00000000      1.00000000      1.00000000
      1.00000000      1.00000000      1.00000000      1.00000000      1.00000000      1.00000000      1.00000000      1.00000000      1.00000000      1.00000000      1.00000000      1.00000000</v>
    <i name="NUPDOWN">     -1.00000000</i>
    <i type="logical" name="LSORBIT"> F  </i>
    <v name="SAXIS">      0.00000000      0.00000000      1.00000000</v>
    <i type="logical" name="LSPIRAL"> F  </i>
    <v name="QSPIRAL">      0.00000000      0.00000000      0.00000000</v>
    <i type="logical" name="LZEROZ"> F  </i>
   </separator>
   <separator name="electronic exchange-correlation" >
    <i type="logical" name="LASPH"> F  </i>
    <i type="logical" name="LMETAGGA"> F  </i>
   </separator>
   <separator name="electronic convergence" >
    <i type="int" name="NELM">   200</i>
    <i type="int" name="NELMDL">     0</i>
    <i type="int" name="NELMIN">     2</i>
    <i name="ENINI">    500.00000000</i>
    <separator name="electronic convergence detail" >
     <i type="logical" name="LDIAG"> T  </i>
     <i type="logical" name="LSUBROT"> F  </i>
     <i name="WEIMIN">      0.00000000</i>
     <i name="EBREAK">      0.00000001</i>
     <i name="DEPER">      0.30000000</i>
     <i type="int" name="NRMM">     4</i>
     <i name="TIME">      0.40000000</i>
    </separator>
   </separator>
   <separator name="electronic mixer" >
    <i name="AMIX">      0.40000000</i>
    <i name="BMIX">      1.00000000</i>
    <i name="AMIN">      0.10000000</i>
    <i name="AMIX_MAG">      1.60000000</i>
    <i name="BMIX_MAG">      1.00000000</i>
    <separator name="electronic mixer details" >
     <i type="int" name="IMIX">     4</i>
     <i type="logical" name="MIXFIRST"> F  </i>
     <i type="int" name="MAXMIX">   -45</i>
     <i name="WC">    100.00000000</i>
     <i type="int" name="INIMIX">     1</i>
     <i type="int" name="MIXPRE">     1</i>
     <i type="int" name="MREMOVE">     5</i>
    </separator>
   </separator>
   <separator name="electronic dipolcorrection" >
    <i type="logical" name="LDIPOL"> F  </i>
    <i type="logical" name="LMONO"> F  </i>
    <i type="int" name="IDIPOL">     0</i>
    <i name="EPSILON">      1.00000000</i>
    <v name="DIPOL">   -100.00000000   -100.00000000   -100.00000000</v>
    <i name="EFIELD">      0.00000000</i>
   </separator>
  </separator>
  <separator name="grids" >
   <i type="int" name="NGX">   160</i>
   <i type="int" name="NGY">   160</i>
   <i type="int" name="NGZ">   150</i>
   <i type="int" name="NGXF">   240</i>
   <i type="int" name="NGYF">   240</i>
   <i type="int" name="NGZF">   224</i>
   <i type="logical" name="ADDGRID"> F  </i>
  </separator>
  <separator name="ionic" >
   <i type="int" name="NSW">     0</i>
   <i type="int" name="IBRION">    -1</i>
   <i type="int" name="MDALGO">     0</i>
   <i type="int" name="ISIF">     2</i>
   <i name="PSTRESS">      0.00000000</i>
   <i name="EDIFFG">     -0.01000000</i>
   <i type="int" name="NFREE">     0</i>
   <i name="POTIM">      0.30000000</i>
   <i name="SMASS">     -3.00000000</i>
   <i name="SCALEE">      1.00000000</i>
  </separator>
  <separator name="ionic md" >
   <i name="TEBEG">      0.00010000</i>
   <i name="TEEND">      0.00010000</i>
   <i type="int" name="NBLOCK">     1</i>
   <i type="int" name="KBLOCK">     1</i>
   <i type="int" name="NPACO">   256</i>
   <i name="APACO">     16.00000000</i>
  </separator>
  <separator name="symmetry" >
   <i type="int" name="ISYM">     2</i>
   <i name="SYMPREC">      0.00001000</i>
  </separator>
  <separator name="dos" >
   <i type="int" name="LORBIT">     0</i>
   <v name="RWIGS">     -1.00000000     -1.00000000     -1.00000000</v>
   <i type="int" name="NEDOS">   301</i>
   <i name="EMIN">     10.00000000</i>
   <i name="EMAX">    -10.00000000</i>
   <i name="EFERMI">      0.00000000</i>
  </separator>
  <separator name="writing" >
   <i type="int" name="NWRITE">     0</i>
   <i type="logical" name="LWAVE"> F  </i>
   <i type="logical" name="LDOWNSAMPLE"> F  </i>
   <i type="logical" name="LCHARG"> F  </i>
   <i type="logical" name="LPARD"> F  </i>
   <i type="logical" name="LVTOT"> F  </i>
   <i type="logical" name="LVHAR"> F  </i>
   <i type="logical" name="LELF"> F  </i>
   <i type="logical" name="LOPTICS"> F  </i>
   <v name="STM">      0.00000000      0.00000000      0.00000000      0.00000000      0.00000000      0.00000000      0.00000000</v>
  </separator>
  <separator name="performance" >
   <i type="int" name="NPAR">    16</i>
   <i type="int" name="NSIM">     4</i>
   <i type="int" name="NBLK">    -1</i>
   <i type="logical" name="LPLANE"> T  </i>
   <i type="logical" name="LSCALAPACK"> T  </i>
   <i type="logical" name="LSCAAWARE"> F  </i>
   <i type="logical" name="LSCALU"> F  </i>
   <i type="logical" name="LASYNC"> F  </i>
   <i type="logical" name="LORBITALREAL"> F  </i>
  </separator>
  <separator name="miscellaneous" >
   <i type="int" name="IDIOT">     3</i>
   <i type="int" name="ISPECIAL">     0</i>
   <i type="logical" name="LMUSIC"> F  </i>
   <v name="POMASS">      1.00000000     14.00100000     12.01100000</v>
   <v name="DARWINR">      0.00000000      0.00000000      0.00000000</v>
   <v name="DARWINV">      1.00000000      1.00000000      1.00000000</v>
   <i type="logical" name="LCORR"> T  </i>
  </separator>
  <i type="logical" name="GGA_COMPAT"> T  </i>
  <i type="logical" name="LBERRY"> F  </i>
  <i type="int" name="ICORELEVEL">     0</i>
  <i type="logical" name="LDAU"> F  </i>
  <i type="int" name="I_CONSTRAINED_M">     0</i>
  <separator name="electronic exchange-correlation" >
   <i type="string" name="GGA">PE</i>
   <i type="int" name="VOSKOWN">     0</i>
   <i type="logical" name="LHFCALC"> F  </i>
   <i type="string" name="PRECFOCK"></i>
   <i type="logical" name="LSYMGRAD"> F  </i>
   <i type="logical" name="LHFONE"> F  </i>
   <i type="logical" name="LRHFCALC"> F  </i>
   <i type="logical" name="LTHOMAS"> F  </i>
   <i type="logical" name="LMODELHF"> F  </i>
   <i name="ENCUT4O">     -1.00000000</i>
   <i type="int" name="EXXOEP">     0</i>
   <i type="int" name="FOURORBIT">     0</i>
   <i name="AEXX">      0.00000000</i>
   <i name="HFALPHA">      0.00000000</i>
   <i name="MCALPHA">      0.00000000</i>
   <i name="ALDAX">      1.00000000</i>
   <i name="AGGAX">      1.00000000</i>
   <i name="ALDAC">      1.00000000</i>
   <i name="AGGAC">      1.00000000</i>
   <i type="int" name="NKREDX">     1</i>
   <i type="int" name="NKREDY">     1</i>
   <i type="int" name="NKREDZ">     1</i>
   <i type="logical" name="SHIFTRED"> F  </i>
   <i type="logical" name="ODDONLY"> F  </i>
   <i type="logical" name="EVENONLY"> F  </i>
   <i type="int" name="LMAXFOCK">     0</i>
   <i type="int" name="NMAXFOCKAE">     0</i>
   <i type="logical" name="LFOCKAEDFT"> F  </i>
   <i name="HFSCREEN">      0.00000000</i>
   <i name="HFSCREENC">      0.00000000</i>
   <i type="int" name="NBANDSGWLOW">     0</i>
  </separator>
  <separator name="vdW DFT" >
   <i type="logical" name="LUSE_VDW"> F  </i>
   <i name="Zab_VDW">     -0.84910000</i>
   <i name="PARAM1">      0.12340000</i>
   <i name="PARAM2">      1.00000000</i>
   <i name="PARAM3">      0.00000000</i>
  </separator>
  <separator name="model GW" >
   <i type="int" name="MODEL_GW">     0</i>
   <i name="MODEL_EPS0">     67.61585403</i>
   <i name="MODEL_ALPHA">      1.00000000</i>
  </separator>
  <separator name="linear response parameters" >
   <i type="logical" name="LEPSILON"> F  </i>
   <i type="logical" name="LRPA"> F  </i>
   <i type="logical" name="LNABLA"> F  </i>
   <i type="logical" name="LVEL"> F  </i>
   <i type="int" name="KINTER">     0</i>
   <i name="CSHIFT">      0.10000000</i>
   <i name="OMEGAMAX">     -1.00000000</i>
   <i name="DEG_THRESHOLD">      0.00200000</i>
   <i name="RTIME">     -0.10000000</i>
   <i name="WPLASMAI">      0.00000000</i>
   <v name="DFIELD">      0.00000000      0.00000000      0.00000000</v>
   <v name="WPLASMA">      0.00000000      0.00000000      0.00000000      0.00000000      0.00000000      0.00000000      0.00000000      0.00000000      0.00000000</v>
  </separator>
  <separator name="orbital magnetization" >
   <i type="logical" name="NUCIND"> F  </i>
   <v name="MAGPOS">      0.00000000      0.00000000      0.00000000</v>
   <i type="logical" name="LNICSALL"> T  </i>
   <i type="logical" name="ORBITALMAG"> F  </i>
   <i type="logical" name="LMAGBLOCH"> F  </i>
   <i type="logical" name="LCHIMAG"> F  </i>
   <i type="logical" name="LGAUGE"> T  </i>
   <i type="int" name="MAGATOM">     0</i>
   <v name="MAGDIPOL">      0.00000000      0.00000000      0.00000000</v>
   <v name="AVECCONST">      0.00000000      0.00000000      0.00000000</v>
  </separator>
  <separator name="response functions" >
   <i type="logical" name="LADDER"> F  </i>
   <i type="logical" name="LRPAFORCE"> F  </i>
   <i type="logical" name="LFXC"> F  </i>
   <i type="logical" name="LHARTREE"> T  </i>
   <i type="int" name="IBSE">     0</i>
   <v type="int" name="KPOINT">    -1     0     0     0</v>
   <i type="logical" name="LTCTE"> F  </i>
   <i type="logical" name="LTETE"> F  </i>
   <i type="logical" name="LTRIPLET"> F  </i>
   <i type="logical" name="LFXCEPS"> F  </i>
   <i type="logical" name="LFXHEG"> F  </i>
   <i type="int" name="NATURALO">     2</i>
   <i type="logical" name="L2ORDER"> F  </i>
   <i type="logical" name="LMP2LT"> F  </i>
   <i type="logical" name="LUSEW"> F  </i>
   <i name="ENCUTGW">     -2.00000000</i>
   <i name="ENCUTGWSOFT">     -2.00000000</i>
   <i name="ENCUTLF">     -1.00000000</i>
   <i type="int" name="LMAXMP2">    -1</i>
   <i name="SCISSOR">      0.00000000</i>
   <i type="int" name="NOMEGA">     0</i>
   <i type="int" name="NOMEGAR">     0</i>
   <i type="int" name="NBANDSGW">    -1</i>
   <i type="int" name="NBANDSO">    -1</i>
   <i type="int" name="NBANDSV">    -1</i>
   <i type="int" name="NELM">   200</i>
   <i type="int" name="NELMHF">     1</i>
   <i type="int" name="DIM">     3</i>
   <i type="int" name="ANTIRES">     0</i>
   <i name="OMEGAMAX">    -30.00000000</i>
   <i name="OMEGAMIN">    -30.00000000</i>
   <i name="OMEGATL">   -200.00000000</i>
   <i type="int" name="OMEGAGRID">   140</i>
   <i name="CSHIFT">     -0.10000000</i>
   <i type="logical" name="SELFENERGY"> F  </i>
   <i type="logical" name="LSPECTRAL"> F  </i>
   <i type="logical" name="LSPECTRALGW"> F  </i>
   <i type="logical" name="LSINGLES"> F  </i>
   <i type="logical" name="LFERMIGW"> F  </i>
   <i type="logical" name="ODDONLYGW"> F  </i>
   <i type="logical" name="EVENONLYGW"> F  </i>
   <i type="int" name="NKREDLFX">     1</i>
   <i type="int" name="NKREDLFY">     1</i>
   <i type="int" name="NKREDLFZ">     1</i>
   <i type="int" name="MAXMEM">  2800</i>
   <i type="int" name="TELESCOPE">     0</i>
   <i type="int" name="TAUPAR">     1</i>
   <i type="int" name="OMEGAPAR">    -1</i>
   <i name="LAMBDA">      1.00000000</i>
  </separator>
  <separator name="External order field" >
   <i name="OFIELD_KAPPA">      0.00000000</i>
   <v name="OFIELD_K">      0.00000000      0.00000000      0.00000000</v>
   <i name="OFIELD_Q6_NEAR">      0.00000000</i>
   <i name="OFIELD_Q6_FAR">      0.00000000</i>
   <i name="OFIELD_A">      0.00000000</i>
  </separator>
  <separator name="solvation model" >
   <i type="logical" name="LSOL"> F  </i>
  </separator>
 </parameters>
 <atominfo>
  <atoms>      72 </atoms>
  <types>       3 </types>
  <array name="atoms" >
   <dimension dim="1">ion</dimension>
   <field type="string">element</field>
   <field type="int">atomtype</field>
   <set>
    <rc><c>H </c><c>   1</c></rc>
    <rc><c>H </c><c>   1</c></rc>
    <rc><c>H </c><c>   1</c></rc>
    <rc><c>H </c><c>   1</c></rc>
    <rc><c>H </c><c>   1</c></rc>
    <rc><c>H </c><c>   1</c></rc>
    <rc><c>H </c><c>   1</c></rc>
    <rc><c>H </c><c>   1</c></rc>
    <rc><c>H </c><c>   1</c></rc>
    <rc><c>H </c><c>   1</c></rc>
    <rc><c>H </c><c>   1</c></rc>
    <rc><c>H </c><c>   1</c></rc>
    <rc><c>H </c><c>   1</c></rc>
    <rc><c>H </c><c>   1</c></rc>
    <rc><c>H </c><c>   1</c></rc>
    <rc><c>H </c><c>   1</c></rc>
    <rc><c>H </c><c>   1</c></rc>
    <rc><c>H </c><c>   1</c></rc>
    <rc><c>N </c><c>   2</c></rc>
    <rc><c>N </c><c>   2</c></rc>
    <rc><c>N </c><c>   2</c></rc>
    <rc><c>N </c><c>   2</c></rc>
    <rc><c>N </c><c>   2</c></rc>
    <rc><c>N </c><c>   2</c></rc>
    <rc><c>N </c><c>   2</c></rc>
    <rc><c>N </c><c>   2</c></rc>
    <rc><c>N </c><c>   2</c></rc>
    <rc><c>N </c><c>   2</c></rc>
    <rc><c>N </c><c>   2</c></rc>
    <rc><c>N </c><c>   2</c></rc>
    <rc><c>N </c><c>   2</c></rc>
    <rc><c>N </c><c>   2</c></rc>
    <rc><c>N </c><c>   2</c></rc>
    <rc><c>N </c><c>   2</c></rc>
    <rc><c>N </c><c>   2</c></rc>
    <rc><c>N </c><c>   2</c></rc>
    <rc><c>N </c><c>   2</c></rc>
    <rc><c>N </c><c>   2</c></rc>
    <rc><c>N </c><c>   2</c></rc>
    <rc><c>N </c><c>   2</c></rc>
    <rc><c>N </c><c>   2</c></rc>
    <rc><c>N </c><c>   2</c></rc>
    <rc><c>C </c><c>   3</c></rc>
    <rc><c>C </c><c>   3</c></rc>
    <rc><c>C </c><c>   3</c></rc>
    <rc><c>C </c><c>   3</c></rc>
    <rc><c>C </c><c>   3</c></rc>
    <rc><c>C </c><c>   3</c></rc>
    <rc><c>C </c><c>   3</c></rc>
    <rc><c>C </c><c>   3</c></rc>
    <rc><c>C </c><c>   3</c></rc>
    <rc><c>C </c><c>   3</c></rc>
    <rc><c>C </c><c>   3</c></rc>
    <rc><c>C </c><c>   3</c></rc>
    <rc><c>C </c><c>   3</c></rc>
    <rc><c>C </c><c>   3</c></rc>
    <rc><c>C </c><c>   3</c></rc>
    <rc><c>C </c><c>   3</c></rc>
    <rc><c>C </c><c>   3</c></rc>
    <rc><c>C </c><c>   3</c></rc>
    <rc><c>C </c><c>   3</c></rc>
    <rc><c>C </c><c>   3</c></rc>
    <rc><c>C </c><c>   3</c></rc>
    <rc><c>C </c><c>   3</c></rc>
    <rc><c>C </c><c>   3</c></rc>
    <rc><c>C </c><c>   3</c></rc>
    <rc><c>C </c><c>   3</c></rc>
    <rc><c>C </c><c>   3</c></rc>
    <rc><c>C </c><c>   3</c></rc>
    <rc><c>C </c><c>   3</c></rc>
    <rc><c>C </c><c>   3</c></rc>
    <rc><c>C </c><c>   3</c></rc>
   </set>
  </array>
  <array name="atomtypes" >
   <dimension dim="1">type</dimension>
   <field type="int">atomspertype</field>
   <field type="string">element</field>
   <field>mass</field>
   <field>valence</field>
   <field type="string">pseudopotential</field>
   <set>
    <rc><c>  18</c><c>H </c><c>      1.00000000</c><c>      1.00000000</c><c>  PAW_PBE H 15Jun2001                   </c></rc>
    <rc><c>  24</c><c>N </c><c>     14.00100000</c><c>      5.00000000</c><c>  PAW_PBE N 08Apr2002                   </c></rc>
    <rc><c>  30</c><c>C </c><c>     12.01100000</c><c>      4.00000000</c><c>  PAW_PBE C 08Apr2002                   </c></rc>
   </set>
  </array>
 </atominfo>
 <structure name="initialpos" >
  <crystal>
   <varray name="basis" >
    <v>      21.68139555       0.06684725       0.00000000 </v>
    <v>     -10.78385089      18.67842190       0.00000000 </v>
    <v>       0.00000000       0.00000000      20.00000000 </v>
   </varray>
   <i name="volume">   8113.90248362 </i>
   <varray name="rec_basis" >
    <v>       0.04604054       0.02658117       0.00000000 </v>
    <v>      -0.00016477       0.05344258       0.00000000 </v>
    <v>       0.00000000       0.00000000       0.05000000 </v>
   </varray>
  </crystal>
  <varray name="positions" >
   <v>       0.64235728       0.17329606       0.52720176 </v>
   <v>       0.82505607       0.46595590       0.51736100 </v>
   <v>       0.53322748       0.35837039       0.51784177 </v>
   <v>       0.35215445       0.82231562       0.46749875 </v>
   <v>       0.17403780       0.52854136       0.48638514 </v>
   <v>       0.46752179       0.64307049       0.48526439 </v>
   <v>       0.36064176       0.51035614       0.44376052 </v>
   <v>       0.34907297       0.50561503       0.53205644 </v>
   <v>       0.14657930       0.63004044       0.43064670 </v>
   <v>       0.15573367       0.65207034       0.51712234 </v>
   <v>       0.47959901       0.85348079       0.41737437 </v>
   <v>       0.49239131       0.83813518       0.50235806 </v>
   <v>       0.64107536       0.48862653       0.56211240 </v>
   <v>       0.65465911       0.49555312       0.47402842 </v>
   <v>       0.84949089       0.36309931       0.57119123 </v>
   <v>       0.84008194       0.34039737       0.48482494 </v>
   <v>       0.51629921       0.14491406       0.57942011 </v>
   <v>       0.50285139       0.16030113       0.49461739 </v>
   <v>       0.59294274       0.28952961       0.51055948 </v>
   <v>       0.70874461       0.30009846       0.51113592 </v>
   <v>       0.69778323       0.40560773       0.50685525 </v>
   <v>       0.60750451       0.19024489       0.51600746 </v>
   <v>       0.80736030       0.41337167       0.50901455 </v>
   <v>       0.58510102       0.39199595       0.50676855 </v>
   <v>       0.40498445       0.70929176       0.48876534 </v>
   <v>       0.28797461       0.69560416       0.48665931 </v>
   <v>       0.30193669       0.59199698       0.49489355 </v>
   <v>       0.38769707       0.80663415       0.47992538 </v>
   <v>       0.19107886       0.58138042       0.49163588 </v>
   <v>       0.41583805       0.60874943       0.49641127 </v>
   <v>       0.53419875       0.50315237       0.56367986 </v>
   <v>       0.43998996       0.54969997       0.66981710 </v>
   <v>       0.97208430       0.46622059       0.56387585 </v>
   <v>       0.11986382       0.56551716       0.66098538 </v>
   <v>       0.49343703       0.02132042       0.56323477 </v>
   <v>       0.44098039       0.86540879       0.65009716 </v>
   <v>       0.46999331       0.49987331       0.44111822 </v>
   <v>       0.56612704       0.45494360       0.33521183 </v>
   <v>       0.02521176       0.52514356       0.43768507 </v>
   <v>       0.87772295       0.42556963       0.34038618 </v>
   <v>       0.50033009       0.97630447       0.43328835 </v>
   <v>       0.54998066       0.13125442       0.34598990 </v>
   <v>       0.62730002       0.36170636       0.50771225 </v>
   <v>       0.63686163       0.26262526       0.51207390 </v>
   <v>       0.73528251       0.37092185       0.50866011 </v>
   <v>       0.37216067       0.63728731       0.49360381 </v>
   <v>       0.35976197       0.73453416       0.48564033 </v>
   <v>       0.26294978       0.62509369       0.49133316 </v>
   <v>       0.44783210       0.51599540       0.49744018 </v>
   <v>       0.48102990       0.51807625       0.55904704 </v>
   <v>       0.45870138       0.53570334       0.62017579 </v>
   <v>       0.38805413       0.53212949       0.49165661 </v>
   <v>       0.06693220       0.54928002       0.49166793 </v>
   <v>       0.03968684       0.51883284       0.55518433 </v>
   <v>       0.08348553       0.54394124       0.61380832 </v>
   <v>       0.14232237       0.60828964       0.48133822 </v>
   <v>       0.48105078       0.93055933       0.48450158 </v>
   <v>       0.47729265       0.95372671       0.54991147 </v>
   <v>       0.45691644       0.90544204       0.60549730 </v>
   <v>       0.46295576       0.85502587       0.46913596 </v>
   <v>       0.52334508       0.48521399       0.44570861 </v>
   <v>       0.55605967       0.48661170       0.50744960 </v>
   <v>       0.54644306       0.46836031       0.38458524 </v>
   <v>       0.61458882       0.46869675       0.51351184 </v>
   <v>       0.95768449       0.47253795       0.44633726 </v>
   <v>       0.93032009       0.44241849       0.50993199 </v>
   <v>       0.91395897       0.44722694       0.38765435 </v>
   <v>       0.85446744       0.38462277       0.52028558 </v>
   <v>       0.51604157       0.04374187       0.44656014 </v>
   <v>       0.51289680       0.06707230       0.51204516 </v>
   <v>       0.53526378       0.09166375       0.39080812 </v>
   <v>       0.53215058       0.14290513       0.52745347 </v>
  </varray>
 </structure>
 <calculation>
  <scstep>
   <time name="dav">  105.39  106.39</time>
   <time name="total">  105.54  106.54</time>
   <energy>
    <i name="alphaZ">     37.42959440 </i>
    <i name="ewald">  28094.75630636 </i>
    <i name="hartreedc"> -37015.88049580 </i>
    <i name="XCdc">    947.28316168 </i>
    <i name="pawpsdc">  25394.61518004 </i>
    <i name="pawaedc"> -25449.13129712 </i>
    <i name="eentropy">     -0.00000000 </i>
    <i name="bandstr">  -3524.86502141 </i>
    <i name="atom">  10988.04477504 </i>
    <i name="e_fr_energy">   -527.74779681 </i>
    <i name="e_wo_entrp">   -527.74779681 </i>
    <i name="e_0_energy">   -527.74779681 </i>
   </energy>
  </scstep>
  <scstep>
   <time name="dav">  118.84  120.00</time>
   <time name="total">  118.84  120.01</time>
   <energy>
    <i name="e_fr_energy">   -528.39562749 </i>
    <i name="e_wo_entrp">   -528.39562749 </i>
    <i name="e_0_energy">   -528.39562749 </i>
   </energy>
  </scstep>
  <scstep>
   <time name="dav">  131.83  133.08</time>
   <time name="total">  131.84  133.09</time>
   <energy>
    <i name="e_fr_energy">   -528.41121004 </i>
    <i name="e_wo_entrp">   -528.41121004 </i>
    <i name="e_0_energy">   -528.41121004 </i>
   </energy>
  </scstep>
  <scstep>
   <time name="dav">  120.70  121.87</time>
   <time name="total">  120.71  121.88</time>
   <energy>
    <i name="e_fr_energy">   -528.41168306 </i>
    <i name="e_wo_entrp">   -528.41168306 </i>
    <i name="e_0_energy">   -528.41168306 </i>
   </energy>
  </scstep>
  <scstep>
   <time name="dav">  111.38  112.39</time>
   <time name="total">  111.39  112.40</time>
   <energy>
    <i name="e_fr_energy">   -528.41169811 </i>
    <i name="e_wo_entrp">   -528.41169811 </i>
    <i name="e_0_energy">   -528.41169811 </i>
   </energy>
  </scstep>
  <scstep>
   <time name="dav">   90.60   91.42</time>
   <time name="total">   90.61   91.43</time>
   <energy>
    <i name="alphaZ">     37.42959440 </i>
    <i name="ewald">  28094.75630636 </i>
    <i name="hartreedc"> -37015.88049580 </i>
    <i name="XCdc">    947.28316168 </i>
    <i name="pawpsdc">  25394.61518004 </i>
    <i name="pawaedc"> -25449.13129712 </i>
    <i name="eentropy">     -0.00000000 </i>
    <i name="bandstr">  -3525.52892318 </i>
    <i name="atom">  10988.04477504 </i>
    <i name="e_fr_energy">   -528.41169858 </i>
    <i name="e_wo_entrp">   -528.41169858 </i>
    <i name="e_0_energy">   -528.41169858 </i>
   </energy>
  </scstep>
  <structure>
   <crystal>
    <varray name="basis" >
     <v>      21.68139555       0.06684725       0.00000000 </v>
     <v>     -10.78385089      18.67842190       0.00000000 </v>
     <v>       0.00000000       0.00000000      20.00000000 </v>
    </varray>
    <i name="volume">   8113.90248362 </i>
    <varray name="rec_basis" >
     <v>       0.04604054       0.02658117       0.00000000 </v>
     <v>      -0.00016477       0.05344258       0.00000000 </v>
     <v>       0.00000000       0.00000000       0.05000000 </v>
    </varray>
   </crystal>
   <varray name="positions" >
    <v>       0.64235728       0.17329606       0.52720176 </v>
    <v>       0.82505607       0.46595590       0.51736100 </v>
    <v>       0.53322748       0.35837039       0.51784177 </v>
    <v>       0.35215445       0.82231562       0.46749875 </v>
    <v>       0.17403780       0.52854136       0.48638514 </v>
    <v>       0.46752179       0.64307049       0.48526439 </v>
    <v>       0.36064176       0.51035614       0.44376052 </v>
    <v>       0.34907297       0.50561503       0.53205644 </v>
    <v>       0.14657930       0.63004044       0.43064670 </v>
    <v>       0.15573367       0.65207034       0.51712234 </v>
    <v>       0.47959901       0.85348079       0.41737437 </v>
    <v>       0.49239131       0.83813518       0.50235806 </v>
    <v>       0.64107536       0.48862653       0.56211240 </v>
    <v>       0.65465911       0.49555312       0.47402842 </v>
    <v>       0.84949089       0.36309931       0.57119123 </v>
    <v>       0.84008194       0.34039737       0.48482494 </v>
    <v>       0.51629921       0.14491406       0.57942011 </v>
    <v>       0.50285139       0.16030113       0.49461739 </v>
    <v>       0.59294274       0.28952961       0.51055948 </v>
    <v>       0.70874461       0.30009846       0.51113592 </v>
    <v>       0.69778323       0.40560773       0.50685525 </v>
    <v>       0.60750451       0.19024489       0.51600746 </v>
    <v>       0.80736030       0.41337167       0.50901455 </v>
    <v>       0.58510102       0.39199595       0.50676855 </v>
    <v>       0.40498445       0.70929176       0.48876534 </v>
    <v>       0.28797461       0.69560416       0.48665931 </v>
    <v>       0.30193669       0.59199698       0.49489355 </v>
    <v>       0.38769707       0.80663415       0.47992538 </v>
    <v>       0.19107886       0.58138042       0.49163588 </v>
    <v>       0.41583805       0.60874943       0.49641127 </v>
    <v>       0.53419875       0.50315237       0.56367986 </v>
    <v>       0.43998996       0.54969997       0.66981710 </v>
    <v>       0.97208430       0.46622059       0.56387585 </v>
    <v>       0.11986382       0.56551716       0.66098538 </v>
    <v>       0.49343703       0.02132042       0.56323477 </v>
    <v>       0.44098039       0.86540879       0.65009716 </v>
    <v>       0.46999331       0.49987331       0.44111822 </v>
    <v>       0.56612704       0.45494360       0.33521183 </v>
    <v>       0.02521176       0.52514356       0.43768507 </v>
    <v>       0.87772295       0.42556963       0.34038618 </v>
    <v>       0.50033009       0.97630447       0.43328835 </v>
    <v>       0.54998066       0.13125442       0.34598990 </v>
    <v>       0.62730002       0.36170636       0.50771225 </v>
    <v>       0.63686163       0.26262526       0.51207390 </v>
    <v>       0.73528251       0.37092185       0.50866011 </v>
    <v>       0.37216067       0.63728731       0.49360381 </v>
    <v>       0.35976197       0.73453416       0.48564033 </v>
    <v>       0.26294978       0.62509369       0.49133316 </v>
    <v>       0.44783210       0.51599540       0.49744018 </v>
    <v>       0.48102990       0.51807625       0.55904704 </v>
    <v>       0.45870138       0.53570334       0.62017579 </v>
    <v>       0.38805413       0.53212949       0.49165661 </v>
    <v>       0.06693220       0.54928002       0.49166793 </v>
    <v>       0.03968684       0.51883284       0.55518433 </v>
    <v>       0.08348553       0.54394124       0.61380832 </v>
    <v>       0.14232237       0.60828964       0.48133822 </v>
    <v>       0.48105078       0.93055933       0.48450158 </v>
    <v>       0.47729265       0.95372671       0.54991147 </v>
    <v>       0.45691644       0.90544204       0.60549730 </v>
    <v>       0.46295576       0.85502587       0.46913596 </v>
    <v>       0.52334508       0.48521399       0.44570861 </v>
    <v>       0.55605967       0.48661170       0.50744960 </v>
    <v>       0.54644306       0.46836031       0.38458524 </v>
    <v>       0.61458882       0.46869675       0.51351184 </v>
    <v>       0.95768449       0.47253795       0.44633726 </v>
    <v>       0.93032009       0.44241849       0.50993199 </v>
    <v>       0.91395897       0.44722694       0.38765435 </v>
    <v>       0.85446744       0.38462277       0.52028558 </v>
    <v>       0.51604157       0.04374187       0.44656014 </v>
    <v>       0.51289680       0.06707230       0.51204516 </v>
    <v>       0.53526378       0.09166375       0.39080812 </v>
    <v>       0.53215058       0.14290513       0.52745347 </v>
   </varray>
  </structure>
  <varray name="forces" >
   <v>      -0.00644428       0.00271844       0.00339851 </v>
   <v>       0.00073524       0.00065739      -0.00013444 </v>
   <v>       0.00346010       0.00365368      -0.00129936 </v>
   <v>       0.00262233      -0.00198633       0.00106111 </v>
   <v>       0.00192256      -0.00048977      -0.00183637 </v>
   <v>      -0.00085087      -0.00111746      -0.00008348 </v>
   <v>       0.00011343      -0.00007725       0.00271045 </v>
   <v>       0.00028406      -0.00081081      -0.00212511 </v>
   <v>      -0.00162299      -0.00268393       0.00056900 </v>
   <v>       0.00015161      -0.00249914      -0.00487710 </v>
   <v>      -0.00248955       0.00286615      -0.00222658 </v>
   <v>      -0.00163545       0.00242203      -0.00656984 </v>
   <v>      -0.00108111       0.00066743      -0.00329222 </v>
   <v>      -0.00178904       0.00268839       0.00451843 </v>
   <v>       0.00045381       0.00128578      -0.00046396 </v>
   <v>      -0.00015447      -0.00011509       0.00519610 </v>
   <v>      -0.00089170      -0.00293067      -0.00038813 </v>
   <v>      -0.00072646       0.00018785       0.00575843 </v>
   <v>       0.00512165      -0.00211543       0.00122109 </v>
   <v>      -0.00235221      -0.00055617       0.00115671 </v>
   <v>      -0.00296460       0.00437449      -0.00156562 </v>
   <v>       0.00903611       0.00157491      -0.00005179 </v>
   <v>      -0.00009529       0.00110484      -0.00013201 </v>
   <v>      -0.00134683       0.00205388      -0.00018923 </v>
   <v>      -0.00460610       0.00300406       0.00151154 </v>
   <v>      -0.00333429      -0.00574720      -0.00132179 </v>
   <v>       0.00653567       0.00538458       0.00039404 </v>
   <v>      -0.00298562       0.00207555      -0.00238325 </v>
   <v>       0.00263384       0.00012378       0.00065645 </v>
   <v>      -0.00051310       0.00366010      -0.00128443 </v>
   <v>      -0.00183323      -0.00077949      -0.00079381 </v>
   <v>       0.00011697      -0.00110909       0.00283938 </v>
   <v>       0.00667554       0.00434509      -0.00301813 </v>
   <v>       0.00285655       0.00373789       0.00415757 </v>
   <v>      -0.00131097      -0.00619377       0.00165915 </v>
   <v>      -0.00001443      -0.00274967       0.00318282 </v>
   <v>       0.00213267      -0.00037418       0.00363417 </v>
   <v>       0.00047720      -0.00078636      -0.00199221 </v>
   <v>       0.00074673      -0.00016758       0.00236591 </v>
   <v>       0.00059621      -0.00689666      -0.00227567 </v>
   <v>       0.00004281       0.00258252       0.00418474 </v>
   <v>       0.00039852       0.00161369      -0.00045285 </v>
   <v>      -0.00059487      -0.00769935       0.00158558 </v>
   <v>       0.00011580       0.00463096       0.00029191 </v>
   <v>      -0.00172365       0.00193761      -0.00121177 </v>
   <v>       0.00032635       0.00299109      -0.00074758 </v>
   <v>       0.00314679      -0.00043130      -0.00184579 </v>
   <v>       0.00265509      -0.00281029      -0.00150207 </v>
   <v>       0.00268086      -0.00138231      -0.00141134 </v>
   <v>      -0.00042072      -0.00129340      -0.00497473 </v>
   <v>      -0.00115802       0.00002241       0.00020721 </v>
   <v>       0.00226096       0.00043606       0.00160941 </v>
   <v>      -0.00179600      -0.00273576       0.00071886 </v>
   <v>      -0.00270236      -0.00082609      -0.00406255 </v>
   <v>       0.00171796       0.00150022      -0.00046505 </v>
   <v>      -0.00100618      -0.00311061      -0.00112951 </v>
   <v>       0.00222965      -0.00013898       0.00074964 </v>
   <v>       0.00165041      -0.00040964       0.00165999 </v>
   <v>      -0.00141907      -0.00046887      -0.00275103 </v>
   <v>      -0.00258651       0.00134656       0.00340196 </v>
   <v>      -0.00264350       0.00253864      -0.00209245 </v>
   <v>      -0.00237021       0.00206691      -0.00022843 </v>
   <v>       0.00171827      -0.00230028       0.00029910 </v>
   <v>      -0.00005737      -0.00060574      -0.00343221 </v>
   <v>      -0.00277662      -0.00869571      -0.00133205 </v>
   <v>       0.00402538      -0.00064952       0.00012873 </v>
   <v>      -0.00177352      -0.00349758      -0.00169601 </v>
   <v>      -0.00167029       0.00222000      -0.00147510 </v>
   <v>      -0.00370384       0.00732129       0.00124443 </v>
   <v>      -0.00144189       0.00173407      -0.00139347 </v>
   <v>       0.00064077      -0.00053613       0.00225303 </v>
   <v>      -0.00139469      -0.00375072       0.00618305 </v>
  </varray>
  <varray name="stress" >
   <v>       0.01853081       0.00506523      -0.02236395 </v>
   <v>       0.00506523       0.01158594      -0.00904122 </v>
   <v>      -0.02236395      -0.00904122      -0.24909418 </v>
  </varray>
  <energy>
   <i name="e_fr_energy">   -529.88644056 </i>
   <i name="e_wo_entrp">   -529.88644056 </i>
   <i name="e_0_energy">     -0.00000000 </i>
  </energy>
  <time name="totalsc">  770.79  778.47</time>
  <eigenvalues>
   <array>
    <dimension dim="1">band</dimension>
    <dimension dim="2">kpoint</dimension>
    <dimension dim="3">spin</dimension>
    <field>eigene</field>
    <field>occ</field>
    <set>
     <set comment="spin 1">
      <set comment="kpoint 1">
       <r>  -25.8431    1.0000 </r>
       <r>  -25.7742    1.0000 </r>
       <r>  -25.7664    1.0000 </r>
       <r>  -25.7284    1.0000 </r>
       <r>  -25.6554    1.0000 </r>
       <r>  -24.3432    1.0000 </r>
       <r>  -24.3343    1.0000 </r>
       <r>  -24.2335    1.0000 </r>
       <r>  -24.2284    1.0000 </r>
       <r>  -23.8996    1.0000 </r>
       <r>  -23.8379    1.0000 </r>
       <r>  -23.7959    1.0000 </r>
       <r>  -23.0702    1.0000 </r>
       <r>  -22.8344    1.0000 </r>
       <r>  -22.8268    1.0000 </r>
       <r>  -22.7993    1.0000 </r>
       <r>  -22.7794    1.0000 </r>
       <r>  -22.7727    1.0000 </r>
       <r>  -22.7207    1.0000 </r>
       <r>  -22.6282    1.0000 </r>
       <r>  -21.7250    1.0000 </r>
       <r>  -21.7112    1.0000 </r>
       <r>  -21.5833    1.0000 </r>
       <r>  -21.5741    1.0000 </r>
       <r>  -20.9340    1.0000 </r>
       <r>  -20.8737    1.0000 </r>
       <r>  -20.8374    1.0000 </r>
       <r>  -19.1244    1.0000 </r>
       <r>  -19.1011    1.0000 </r>
       <r>  -18.9250    1.0000 </r>
       <r>  -18.5488    1.0000 </r>
       <r>  -18.5393    1.0000 </r>
       <r>  -18.4843    1.0000 </r>
       <r>  -17.9014    1.0000 </r>
       <r>  -17.8902    1.0000 </r>
       <r>  -17.5529    1.0000 </r>
       <r>  -16.5801    1.0000 </r>
       <r>  -16.5600    1.0000 </r>
       <r>  -16.3234    1.0000 </r>
       <r>  -15.8133    1.0000 </r>
       <r>  -15.8014    1.0000 </r>
       <r>  -15.7110    1.0000 </r>
       <r>  -15.6904    1.0000 </r>
       <r>  -15.0119    1.0000 </r>
       <r>  -14.9364    1.0000 </r>
       <r>  -14.7194    1.0000 </r>
       <r>  -14.6824    1.0000 </r>
       <r>  -14.5744    1.0000 </r>
       <r>  -14.3071    1.0000 </r>
       <r>  -14.2746    1.0000 </r>
       <r>  -14.2698    1.0000 </r>
       <r>  -14.2401    1.0000 </r>
       <r>  -14.2094    1.0000 </r>
       <r>  -14.1238    1.0000 </r>
       <r>  -13.6199    1.0000 </r>
       <r>  -13.3005    1.0000 </r>
       <r>  -12.8079    1.0000 </r>
       <r>  -12.8024    1.0000 </r>
       <r>  -12.4125    1.0000 </r>
       <r>  -12.3986    1.0000 </r>
       <r>  -12.0887    1.0000 </r>
       <r>  -12.0749    1.0000 </r>
       <r>  -11.8480    1.0000 </r>
       <r>  -11.7597    1.0000 </r>
       <r>  -11.6437    1.0000 </r>
       <r>  -11.4888    1.0000 </r>
       <r>  -11.4835    1.0000 </r>
       <r>  -11.2496    1.0000 </r>
       <r>  -11.2491    1.0000 </r>
       <r>  -11.2222    1.0000 </r>
       <r>  -11.1708    1.0000 </r>
       <r>  -11.1144    1.0000 </r>
       <r>  -11.1069    1.0000 </r>
       <r>  -11.0134    1.0000 </r>
       <r>  -10.9702    1.0000 </r>
       <r>  -10.5734    1.0000 </r>
       <r>  -10.4942    1.0000 </r>
       <r>  -10.3236    1.0000 </r>
       <r>  -10.2944    1.0000 </r>
       <r>  -10.2618    1.0000 </r>
       <r>  -10.2541    1.0000 </r>
       <r>  -10.1894    1.0000 </r>
       <r>  -10.1411    1.0000 </r>
       <r>  -10.0483    1.0000 </r>
       <r>  -10.0410    1.0000 </r>
       <r>   -9.9848    1.0000 </r>
       <r>   -9.1132    1.0000 </r>
       <r>   -8.9466    1.0000 </r>
       <r>   -8.8732    1.0000 </r>
       <r>   -8.8419    1.0000 </r>
       <r>   -8.8087    1.0000 </r>
       <r>   -8.8012    1.0000 </r>
       <r>   -8.8008    1.0000 </r>
       <r>   -8.7855    1.0000 </r>
       <r>   -8.7734    1.0000 </r>
       <r>   -8.7674    1.0000 </r>
       <r>   -8.7598    1.0000 </r>
       <r>   -8.7532    1.0000 </r>
       <r>   -8.7524    1.0000 </r>
       <r>   -8.7187    1.0000 </r>
       <r>   -8.6981    1.0000 </r>
       <r>   -8.6871    1.0000 </r>
       <r>   -8.6600    1.0000 </r>
       <r>   -8.6119    1.0000 </r>
       <r>   -8.5611    1.0000 </r>
       <r>   -8.5214    1.0000 </r>
       <r>   -8.5193    1.0000 </r>
       <r>   -8.5008    1.0000 </r>
       <r>   -8.4924    1.0000 </r>
       <r>   -8.4892    1.0000 </r>
       <r>   -7.8798    1.0000 </r>
       <r>   -7.8620    1.0000 </r>
       <r>   -7.8263    1.0000 </r>
       <r>   -7.3000    1.0000 </r>
       <r>   -7.2861    1.0000 </r>
       <r>   -7.2309    1.0000 </r>
       <r>   -6.7803    1.0000 </r>
       <r>   -6.7775    1.0000 </r>
       <r>   -6.7369    1.0000 </r>
       <r>   -6.1550    1.0000 </r>
       <r>   -6.1485    1.0000 </r>
       <r>   -6.1118    1.0000 </r>
       <r>   -6.1080    1.0000 </r>
       <r>   -5.9976    1.0000 </r>
       <r>   -5.9589    1.0000 </r>
       <r>   -5.7523    1.0000 </r>
       <r>   -5.7427    1.0000 </r>
       <r>   -5.7241    1.0000 </r>
       <r>   -5.7099    1.0000 </r>
       <r>   -3.8925    0.0000 </r>
       <r>   -3.8850    0.0000 </r>
       <r>   -3.8322    0.0000 </r>
       <r>   -3.0991    0.0000 </r>
       <r>   -3.0737    0.0000 </r>
       <r>   -3.0029    0.0000 </r>
       <r>   -1.1300    0.0000 </r>
       <r>   -1.0959    0.0000 </r>
       <r>   -1.0385    0.0000 </r>
       <r>   -1.0361    0.0000 </r>
       <r>   -1.0001    0.0000 </r>
       <r>   -0.9765    0.0000 </r>
       <r>   -0.9489    0.0000 </r>
       <r>   -0.9341    0.0000 </r>
       <r>   -0.7824    0.0000 </r>
       <r>   -0.7607    0.0000 </r>
       <r>   -0.5773    0.0000 </r>
       <r>   -0.5442    0.0000 </r>
       <r>   -0.5329    0.0000 </r>
       <r>   -0.4937    0.0000 </r>
       <r>   -0.3703    0.0000 </r>
       <r>   -0.3460    0.0000 </r>
       <r>   -0.2209    0.0000 </r>
       <r>   -0.1972    0.0000 </r>
       <r>   -0.1808    0.0000 </r>
       <r>    0.2354    0.0000 </r>
       <r>    0.3010    0.0000 </r>
       <r>    0.3159    0.0000 </r>
       <r>    0.3391    0.0000 </r>
       <r>    0.3656    0.0000 </r>
       <r>    0.4646    0.0000 </r>
       <r>    0.4929    0.0000 </r>
       <r>    0.6231    0.0000 </r>
       <r>    0.6718    0.0000 </r>
       <r>    0.7002    0.0000 </r>
       <r>    0.7240    0.0000 </r>
       <r>    0.8291    0.0000 </r>
       <r>    0.8553    0.0000 </r>
       <r>    0.9208    0.0000 </r>
       <r>    0.9457    0.0000 </r>
       <r>    0.9649    0.0000 </r>
       <r>    0.9746    0.0000 </r>
       <r>    0.9905    0.0000 </r>
       <r>    1.0021    0.0000 </r>
       <r>    1.0356    0.0000 </r>
       <r>    1.1036    0.0000 </r>
       <r>    1.1313    0.0000 </r>
      </set>
      <set comment="kpoint 2">
       <r>  -25.8430    1.0000 </r>
       <r>  -25.7751    1.0000 </r>
       <r>  -25.7655    1.0000 </r>
       <r>  -25.7284    1.0000 </r>
       <r>  -25.6555    1.0000 </r>
       <r>  -24.3431    1.0000 </r>
       <r>  -24.3343    1.0000 </r>
       <r>  -24.2337    1.0000 </r>
       <r>  -24.2284    1.0000 </r>
       <r>  -23.8995    1.0000 </r>
       <r>  -23.8380    1.0000 </r>
       <r>  -23.7960    1.0000 </r>
       <r>  -23.0700    1.0000 </r>
       <r>  -22.8390    1.0000 </r>
       <r>  -22.8231    1.0000 </r>
       <r>  -22.7985    1.0000 </r>
       <r>  -22.7794    1.0000 </r>
       <r>  -22.7726    1.0000 </r>
       <r>  -22.7207    1.0000 </r>
       <r>  -22.6283    1.0000 </r>
       <r>  -21.7248    1.0000 </r>
       <r>  -21.7112    1.0000 </r>
       <r>  -21.5836    1.0000 </r>
       <r>  -21.5741    1.0000 </r>
       <r>  -20.9339    1.0000 </r>
       <r>  -20.8738    1.0000 </r>
       <r>  -20.8374    1.0000 </r>
       <r>  -19.1242    1.0000 </r>
       <r>  -19.1011    1.0000 </r>
       <r>  -18.9253    1.0000 </r>
       <r>  -18.5488    1.0000 </r>
       <r>  -18.5393    1.0000 </r>
       <r>  -18.4843    1.0000 </r>
       <r>  -17.9009    1.0000 </r>
       <r>  -17.8902    1.0000 </r>
       <r>  -17.5534    1.0000 </r>
       <r>  -16.5799    1.0000 </r>
       <r>  -16.5598    1.0000 </r>
       <r>  -16.3237    1.0000 </r>
       <r>  -15.8131    1.0000 </r>
       <r>  -15.8013    1.0000 </r>
       <r>  -15.7111    1.0000 </r>
       <r>  -15.6904    1.0000 </r>
       <r>  -15.0118    1.0000 </r>
       <r>  -14.9365    1.0000 </r>
       <r>  -14.7192    1.0000 </r>
       <r>  -14.6823    1.0000 </r>
       <r>  -14.5745    1.0000 </r>
       <r>  -14.3072    1.0000 </r>
       <r>  -14.2760    1.0000 </r>
       <r>  -14.2687    1.0000 </r>
       <r>  -14.2401    1.0000 </r>
       <r>  -14.2090    1.0000 </r>
       <r>  -14.1238    1.0000 </r>
       <r>  -13.6195    1.0000 </r>
       <r>  -13.3013    1.0000 </r>
       <r>  -12.8076    1.0000 </r>
       <r>  -12.8016    1.0000 </r>
       <r>  -12.4131    1.0000 </r>
       <r>  -12.3994    1.0000 </r>
       <r>  -12.0881    1.0000 </r>
       <r>  -12.0743    1.0000 </r>
       <r>  -11.8483    1.0000 </r>
       <r>  -11.7596    1.0000 </r>
       <r>  -11.6440    1.0000 </r>
       <r>  -11.4892    1.0000 </r>
       <r>  -11.4831    1.0000 </r>
       <r>  -11.2510    1.0000 </r>
       <r>  -11.2471    1.0000 </r>
       <r>  -11.2221    1.0000 </r>
       <r>  -11.1714    1.0000 </r>
       <r>  -11.1145    1.0000 </r>
       <r>  -11.1067    1.0000 </r>
       <r>  -11.0135    1.0000 </r>
       <r>  -10.9704    1.0000 </r>
       <r>  -10.5733    1.0000 </r>
       <r>  -10.4943    1.0000 </r>
       <r>  -10.3235    1.0000 </r>
       <r>  -10.2943    1.0000 </r>
       <r>  -10.2620    1.0000 </r>
       <r>  -10.2540    1.0000 </r>
       <r>  -10.1894    1.0000 </r>
       <r>  -10.1412    1.0000 </r>
       <r>  -10.0483    1.0000 </r>
       <r>  -10.0410    1.0000 </r>
       <r>   -9.9848    1.0000 </r>
       <r>   -9.1130    1.0000 </r>
       <r>   -8.9474    1.0000 </r>
       <r>   -8.8726    1.0000 </r>
       <r>   -8.8418    1.0000 </r>
       <r>   -8.8086    1.0000 </r>
       <r>   -8.8012    1.0000 </r>
       <r>   -8.8007    1.0000 </r>
       <r>   -8.7855    1.0000 </r>
       <r>   -8.7734    1.0000 </r>
       <r>   -8.7674    1.0000 </r>
       <r>   -8.7598    1.0000 </r>
       <r>   -8.7533    1.0000 </r>
       <r>   -8.7524    1.0000 </r>
       <r>   -8.7187    1.0000 </r>
       <r>   -8.6981    1.0000 </r>
       <r>   -8.6872    1.0000 </r>
       <r>   -8.6600    1.0000 </r>
       <r>   -8.6119    1.0000 </r>
       <r>   -8.5613    1.0000 </r>
       <r>   -8.5218    1.0000 </r>
       <r>   -8.5189    1.0000 </r>
       <r>   -8.5007    1.0000 </r>
       <r>   -8.4925    1.0000 </r>
       <r>   -8.4890    1.0000 </r>
       <r>   -7.8798    1.0000 </r>
       <r>   -7.8620    1.0000 </r>
       <r>   -7.8263    1.0000 </r>
       <r>   -7.3000    1.0000 </r>
       <r>   -7.2861    1.0000 </r>
       <r>   -7.2309    1.0000 </r>
       <r>   -6.7803    1.0000 </r>
       <r>   -6.7775    1.0000 </r>
       <r>   -6.7369    1.0000 </r>
       <r>   -6.1550    1.0000 </r>
       <r>   -6.1485    1.0000 </r>
       <r>   -6.1118    1.0000 </r>
       <r>   -6.1080    1.0000 </r>
       <r>   -5.9976    1.0000 </r>
       <r>   -5.9589    1.0000 </r>
       <r>   -5.7523    1.0000 </r>
       <r>   -5.7427    1.0000 </r>
       <r>   -5.7241    1.0000 </r>
       <r>   -5.7099    1.0000 </r>
       <r>   -3.8924    0.0000 </r>
       <r>   -3.8850    0.0000 </r>
       <r>   -3.8322    0.0000 </r>
       <r>   -3.0991    0.0000 </r>
       <r>   -3.0737    0.0000 </r>
       <r>   -3.0029    0.0000 </r>
       <r>   -1.1299    0.0000 </r>
       <r>   -1.0959    0.0000 </r>
       <r>   -1.0385    0.0000 </r>
       <r>   -1.0361    0.0000 </r>
       <r>   -1.0006    0.0000 </r>
       <r>   -0.9766    0.0000 </r>
       <r>   -0.9482    0.0000 </r>
       <r>   -0.9341    0.0000 </r>
       <r>   -0.7825    0.0000 </r>
       <r>   -0.7608    0.0000 </r>
       <r>   -0.5772    0.0000 </r>
       <r>   -0.5443    0.0000 </r>
       <r>   -0.5327    0.0000 </r>
       <r>   -0.4938    0.0000 </r>
       <r>   -0.3710    0.0000 </r>
       <r>   -0.3464    0.0000 </r>
       <r>   -0.2201    0.0000 </r>
       <r>   -0.1968    0.0000 </r>
       <r>   -0.1806    0.0000 </r>
       <r>    0.2356    0.0000 </r>
       <r>    0.3000    0.0000 </r>
       <r>    0.3122    0.0000 </r>
       <r>    0.3383    0.0000 </r>
       <r>    0.3699    0.0000 </r>
       <r>    0.4650    0.0000 </r>
       <r>    0.4927    0.0000 </r>
       <r>    0.6234    0.0000 </r>
       <r>    0.6709    0.0000 </r>
       <r>    0.6997    0.0000 </r>
       <r>    0.7250    0.0000 </r>
       <r>    0.8290    0.0000 </r>
       <r>    0.8547    0.0000 </r>
       <r>    0.9213    0.0000 </r>
       <r>    0.9460    0.0000 </r>
       <r>    0.9652    0.0000 </r>
       <r>    0.9749    0.0000 </r>
       <r>    0.9904    0.0000 </r>
       <r>    1.0025    0.0000 </r>
       <r>    1.0361    0.0000 </r>
       <r>    1.1038    0.0000 </r>
       <r>    1.1312    0.0000 </r>
      </set>
      <set comment="kpoint 3">
       <r>  -25.8428    1.0000 </r>
       <r>  -25.7772    1.0000 </r>
       <r>  -25.7636    1.0000 </r>
       <r>  -25.7282    1.0000 </r>
       <r>  -25.6556    1.0000 </r>
       <r>  -24.3428    1.0000 </r>
       <r>  -24.3342    1.0000 </r>
       <r>  -24.2343    1.0000 </r>
       <r>  -24.2284    1.0000 </r>
       <r>  -23.8990    1.0000 </r>
       <r>  -23.8382    1.0000 </r>
       <r>  -23.7960    1.0000 </r>
       <r>  -23.0693    1.0000 </r>
       <r>  -22.8464    1.0000 </r>
       <r>  -22.8185    1.0000 </r>
       <r>  -22.7961    1.0000 </r>
       <r>  -22.7794    1.0000 </r>
       <r>  -22.7725    1.0000 </r>
       <r>  -22.7207    1.0000 </r>
       <r>  -22.6286    1.0000 </r>
       <r>  -21.7243    1.0000 </r>
       <r>  -21.7111    1.0000 </r>
       <r>  -21.5843    1.0000 </r>
       <r>  -21.5741    1.0000 </r>
       <r>  -20.9335    1.0000 </r>
       <r>  -20.8740    1.0000 </r>
       <r>  -20.8375    1.0000 </r>
       <r>  -19.1236    1.0000 </r>
       <r>  -19.1010    1.0000 </r>
       <r>  -18.9263    1.0000 </r>
       <r>  -18.5487    1.0000 </r>
       <r>  -18.5394    1.0000 </r>
       <r>  -18.4844    1.0000 </r>
       <r>  -17.8993    1.0000 </r>
       <r>  -17.8902    1.0000 </r>
       <r>  -17.5550    1.0000 </r>
       <r>  -16.5794    1.0000 </r>
       <r>  -16.5592    1.0000 </r>
       <r>  -16.3247    1.0000 </r>
       <r>  -15.8127    1.0000 </r>
       <r>  -15.8012    1.0000 </r>
       <r>  -15.7115    1.0000 </r>
       <r>  -15.6905    1.0000 </r>
       <r>  -15.0115    1.0000 </r>
       <r>  -14.9370    1.0000 </r>
       <r>  -14.7187    1.0000 </r>
       <r>  -14.6822    1.0000 </r>
       <r>  -14.5748    1.0000 </r>
       <r>  -14.3076    1.0000 </r>
       <r>  -14.2788    1.0000 </r>
       <r>  -14.2667    1.0000 </r>
       <r>  -14.2402    1.0000 </r>
       <r>  -14.2079    1.0000 </r>
       <r>  -14.1239    1.0000 </r>
       <r>  -13.6184    1.0000 </r>
       <r>  -13.3035    1.0000 </r>
       <r>  -12.8068    1.0000 </r>
       <r>  -12.7992    1.0000 </r>
       <r>  -12.4150    1.0000 </r>
       <r>  -12.4019    1.0000 </r>
       <r>  -12.0863    1.0000 </r>
       <r>  -12.0724    1.0000 </r>
       <r>  -11.8492    1.0000 </r>
       <r>  -11.7592    1.0000 </r>
       <r>  -11.6451    1.0000 </r>
       <r>  -11.4906    1.0000 </r>
       <r>  -11.4818    1.0000 </r>
       <r>  -11.2521    1.0000 </r>
       <r>  -11.2444    1.0000 </r>
       <r>  -11.2219    1.0000 </r>
       <r>  -11.1731    1.0000 </r>
       <r>  -11.1147    1.0000 </r>
       <r>  -11.1058    1.0000 </r>
       <r>  -11.0138    1.0000 </r>
       <r>  -10.9709    1.0000 </r>
       <r>  -10.5727    1.0000 </r>
       <r>  -10.4946    1.0000 </r>
       <r>  -10.3233    1.0000 </r>
       <r>  -10.2939    1.0000 </r>
       <r>  -10.2626    1.0000 </r>
       <r>  -10.2538    1.0000 </r>
       <r>  -10.1893    1.0000 </r>
       <r>  -10.1415    1.0000 </r>
       <r>  -10.0483    1.0000 </r>
       <r>  -10.0410    1.0000 </r>
       <r>   -9.9848    1.0000 </r>
       <r>   -9.1126    1.0000 </r>
       <r>   -8.9497    1.0000 </r>
       <r>   -8.8708    1.0000 </r>
       <r>   -8.8414    1.0000 </r>
       <r>   -8.8084    1.0000 </r>
       <r>   -8.8013    1.0000 </r>
       <r>   -8.8006    1.0000 </r>
       <r>   -8.7854    1.0000 </r>
       <r>   -8.7734    1.0000 </r>
       <r>   -8.7674    1.0000 </r>
       <r>   -8.7598    1.0000 </r>
       <r>   -8.7533    1.0000 </r>
       <r>   -8.7524    1.0000 </r>
       <r>   -8.7187    1.0000 </r>
       <r>   -8.6981    1.0000 </r>
       <r>   -8.6876    1.0000 </r>
       <r>   -8.6602    1.0000 </r>
       <r>   -8.6117    1.0000 </r>
       <r>   -8.5618    1.0000 </r>
       <r>   -8.5226    1.0000 </r>
       <r>   -8.5180    1.0000 </r>
       <r>   -8.5005    1.0000 </r>
       <r>   -8.4927    1.0000 </r>
       <r>   -8.4886    1.0000 </r>
       <r>   -7.8797    1.0000 </r>
       <r>   -7.8621    1.0000 </r>
       <r>   -7.8264    1.0000 </r>
       <r>   -7.2999    1.0000 </r>
       <r>   -7.2861    1.0000 </r>
       <r>   -7.2309    1.0000 </r>
       <r>   -6.7803    1.0000 </r>
       <r>   -6.7775    1.0000 </r>
       <r>   -6.7369    1.0000 </r>
       <r>   -6.1548    1.0000 </r>
       <r>   -6.1484    1.0000 </r>
       <r>   -6.1120    1.0000 </r>
       <r>   -6.1081    1.0000 </r>
       <r>   -5.9975    1.0000 </r>
       <r>   -5.9590    1.0000 </r>
       <r>   -5.7523    1.0000 </r>
       <r>   -5.7426    1.0000 </r>
       <r>   -5.7241    1.0000 </r>
       <r>   -5.7100    1.0000 </r>
       <r>   -3.8924    0.0000 </r>
       <r>   -3.8851    0.0000 </r>
       <r>   -3.8322    0.0000 </r>
       <r>   -3.0991    0.0000 </r>
       <r>   -3.0737    0.0000 </r>
       <r>   -3.0029    0.0000 </r>
       <r>   -1.1296    0.0000 </r>
       <r>   -1.0959    0.0000 </r>
       <r>   -1.0385    0.0000 </r>
       <r>   -1.0361    0.0000 </r>
       <r>   -1.0022    0.0000 </r>
       <r>   -0.9769    0.0000 </r>
       <r>   -0.9462    0.0000 </r>
       <r>   -0.9341    0.0000 </r>
       <r>   -0.7827    0.0000 </r>
       <r>   -0.7613    0.0000 </r>
       <r>   -0.5770    0.0000 </r>
       <r>   -0.5445    0.0000 </r>
       <r>   -0.5321    0.0000 </r>
       <r>   -0.4938    0.0000 </r>
       <r>   -0.3730    0.0000 </r>
       <r>   -0.3473    0.0000 </r>
       <r>   -0.2176    0.0000 </r>
       <r>   -0.1953    0.0000 </r>
       <r>   -0.1800    0.0000 </r>
       <r>    0.2361    0.0000 </r>
       <r>    0.2969    0.0000 </r>
       <r>    0.3030    0.0000 </r>
       <r>    0.3373    0.0000 </r>
       <r>    0.3796    0.0000 </r>
       <r>    0.4661    0.0000 </r>
       <r>    0.4921    0.0000 </r>
       <r>    0.6243    0.0000 </r>
       <r>    0.6683    0.0000 </r>
       <r>    0.6986    0.0000 </r>
       <r>    0.7277    0.0000 </r>
       <r>    0.8284    0.0000 </r>
       <r>    0.8530    0.0000 </r>
       <r>    0.9228    0.0000 </r>
       <r>    0.9463    0.0000 </r>
       <r>    0.9662    0.0000 </r>
       <r>    0.9757    0.0000 </r>
       <r>    0.9901    0.0000 </r>
       <r>    1.0037    0.0000 </r>
       <r>    1.0376    0.0000 </r>
       <r>    1.1046    0.0000 </r>
       <r>    1.1308    0.0000 </r>
      </set>
      <set comment="kpoint 4">
       <r>  -25.8426    1.0000 </r>
       <r>  -25.7797    1.0000 </r>
       <r>  -25.7613    1.0000 </r>
       <r>  -25.7280    1.0000 </r>
       <r>  -25.6559    1.0000 </r>
       <r>  -24.3422    1.0000 </r>
       <r>  -24.3341    1.0000 </r>
       <r>  -24.2353    1.0000 </r>
       <r>  -24.2284    1.0000 </r>
       <r>  -23.8983    1.0000 </r>
       <r>  -23.8385    1.0000 </r>
       <r>  -23.7961    1.0000 </r>
       <r>  -23.0683    1.0000 </r>
       <r>  -22.8546    1.0000 </r>
       <r>  -22.8152    1.0000 </r>
       <r>  -22.7922    1.0000 </r>
       <r>  -22.7794    1.0000 </r>
       <r>  -22.7722    1.0000 </r>
       <r>  -22.7207    1.0000 </r>
       <r>  -22.6291    1.0000 </r>
       <r>  -21.7235    1.0000 </r>
       <r>  -21.7111    1.0000 </r>
       <r>  -21.5854    1.0000 </r>
       <r>  -21.5741    1.0000 </r>
       <r>  -20.9329    1.0000 </r>
       <r>  -20.8743    1.0000 </r>
       <r>  -20.8375    1.0000 </r>
       <r>  -19.1225    1.0000 </r>
       <r>  -19.1009    1.0000 </r>
       <r>  -18.9279    1.0000 </r>
       <r>  -18.5487    1.0000 </r>
       <r>  -18.5396    1.0000 </r>
       <r>  -18.4844    1.0000 </r>
       <r>  -17.8967    1.0000 </r>
       <r>  -17.8901    1.0000 </r>
       <r>  -17.5576    1.0000 </r>
       <r>  -16.5785    1.0000 </r>
       <r>  -16.5580    1.0000 </r>
       <r>  -16.3264    1.0000 </r>
       <r>  -15.8119    1.0000 </r>
       <r>  -15.8009    1.0000 </r>
       <r>  -15.7121    1.0000 </r>
       <r>  -15.6905    1.0000 </r>
       <r>  -15.0110    1.0000 </r>
       <r>  -14.9377    1.0000 </r>
       <r>  -14.7178    1.0000 </r>
       <r>  -14.6820    1.0000 </r>
       <r>  -14.5753    1.0000 </r>
       <r>  -14.3082    1.0000 </r>
       <r>  -14.2820    1.0000 </r>
       <r>  -14.2648    1.0000 </r>
       <r>  -14.2404    1.0000 </r>
       <r>  -14.2061    1.0000 </r>
       <r>  -14.1241    1.0000 </r>
       <r>  -13.6165    1.0000 </r>
       <r>  -13.3071    1.0000 </r>
       <r>  -12.8056    1.0000 </r>
       <r>  -12.7953    1.0000 </r>
       <r>  -12.4181    1.0000 </r>
       <r>  -12.4060    1.0000 </r>
       <r>  -12.0834    1.0000 </r>
       <r>  -12.0693    1.0000 </r>
       <r>  -11.8506    1.0000 </r>
       <r>  -11.7585    1.0000 </r>
       <r>  -11.6467    1.0000 </r>
       <r>  -11.4929    1.0000 </r>
       <r>  -11.4798    1.0000 </r>
       <r>  -11.2528    1.0000 </r>
       <r>  -11.2411    1.0000 </r>
       <r>  -11.2214    1.0000 </r>
       <r>  -11.1757    1.0000 </r>
       <r>  -11.1150    1.0000 </r>
       <r>  -11.1045    1.0000 </r>
       <r>  -11.0144    1.0000 </r>
       <r>  -10.9717    1.0000 </r>
       <r>  -10.5719    1.0000 </r>
       <r>  -10.4951    1.0000 </r>
       <r>  -10.3230    1.0000 </r>
       <r>  -10.2933    1.0000 </r>
       <r>  -10.2636    1.0000 </r>
       <r>  -10.2534    1.0000 </r>
       <r>  -10.1892    1.0000 </r>
       <r>  -10.1420    1.0000 </r>
       <r>  -10.0482    1.0000 </r>
       <r>  -10.0410    1.0000 </r>
       <r>   -9.9848    1.0000 </r>
       <r>   -9.1118    1.0000 </r>
       <r>   -8.9533    1.0000 </r>
       <r>   -8.8681    1.0000 </r>
       <r>   -8.8408    1.0000 </r>
       <r>   -8.8080    1.0000 </r>
       <r>   -8.8013    1.0000 </r>
       <r>   -8.8003    1.0000 </r>
       <r>   -8.7854    1.0000 </r>
       <r>   -8.7735    1.0000 </r>
       <r>   -8.7674    1.0000 </r>
       <r>   -8.7598    1.0000 </r>
       <r>   -8.7533    1.0000 </r>
       <r>   -8.7524    1.0000 </r>
       <r>   -8.7186    1.0000 </r>
       <r>   -8.6982    1.0000 </r>
       <r>   -8.6882    1.0000 </r>
       <r>   -8.6605    1.0000 </r>
       <r>   -8.6115    1.0000 </r>
       <r>   -8.5626    1.0000 </r>
       <r>   -8.5234    1.0000 </r>
       <r>   -8.5171    1.0000 </r>
       <r>   -8.5003    1.0000 </r>
       <r>   -8.4931    1.0000 </r>
       <r>   -8.4880    1.0000 </r>
       <r>   -7.8795    1.0000 </r>
       <r>   -7.8623    1.0000 </r>
       <r>   -7.8264    1.0000 </r>
       <r>   -7.2998    1.0000 </r>
       <r>   -7.2862    1.0000 </r>
       <r>   -7.2310    1.0000 </r>
       <r>   -6.7803    1.0000 </r>
       <r>   -6.7776    1.0000 </r>
       <r>   -6.7370    1.0000 </r>
       <r>   -6.1545    1.0000 </r>
       <r>   -6.1483    1.0000 </r>
       <r>   -6.1123    1.0000 </r>
       <r>   -6.1081    1.0000 </r>
       <r>   -5.9973    1.0000 </r>
       <r>   -5.9592    1.0000 </r>
       <r>   -5.7523    1.0000 </r>
       <r>   -5.7425    1.0000 </r>
       <r>   -5.7240    1.0000 </r>
       <r>   -5.7101    1.0000 </r>
       <r>   -3.8924    0.0000 </r>
       <r>   -3.8851    0.0000 </r>
       <r>   -3.8322    0.0000 </r>
       <r>   -3.0990    0.0000 </r>
       <r>   -3.0738    0.0000 </r>
       <r>   -3.0029    0.0000 </r>
       <r>   -1.1292    0.0000 </r>
       <r>   -1.0958    0.0000 </r>
       <r>   -1.0386    0.0000 </r>
       <r>   -1.0362    0.0000 </r>
       <r>   -1.0045    0.0000 </r>
       <r>   -0.9772    0.0000 </r>
       <r>   -0.9431    0.0000 </r>
       <r>   -0.9342    0.0000 </r>
       <r>   -0.7832    0.0000 </r>
       <r>   -0.7620    0.0000 </r>
       <r>   -0.5766    0.0000 </r>
       <r>   -0.5449    0.0000 </r>
       <r>   -0.5311    0.0000 </r>
       <r>   -0.4938    0.0000 </r>
       <r>   -0.3763    0.0000 </r>
       <r>   -0.3488    0.0000 </r>
       <r>   -0.2139    0.0000 </r>
       <r>   -0.1928    0.0000 </r>
       <r>   -0.1787    0.0000 </r>
       <r>    0.2370    0.0000 </r>
       <r>    0.2890    0.0000 </r>
       <r>    0.2941    0.0000 </r>
       <r>    0.3367    0.0000 </r>
       <r>    0.3911    0.0000 </r>
       <r>    0.4679    0.0000 </r>
       <r>    0.4912    0.0000 </r>
       <r>    0.6258    0.0000 </r>
       <r>    0.6641    0.0000 </r>
       <r>    0.6973    0.0000 </r>
       <r>    0.7320    0.0000 </r>
       <r>    0.8271    0.0000 </r>
       <r>    0.8510    0.0000 </r>
       <r>    0.9248    0.0000 </r>
       <r>    0.9460    0.0000 </r>
       <r>    0.9681    0.0000 </r>
       <r>    0.9771    0.0000 </r>
       <r>    0.9900    0.0000 </r>
       <r>    1.0056    0.0000 </r>
       <r>    1.0403    0.0000 </r>
       <r>    1.1059    0.0000 </r>
       <r>    1.1300    0.0000 </r>
      </set>
      <set comment="kpoint 5">
       <r>  -25.8422    1.0000 </r>
       <r>  -25.7824    1.0000 </r>
       <r>  -25.7589    1.0000 </r>
       <r>  -25.7277    1.0000 </r>
       <r>  -25.6563    1.0000 </r>
       <r>  -24.3415    1.0000 </r>
       <r>  -24.3339    1.0000 </r>
       <r>  -24.2366    1.0000 </r>
       <r>  -24.2284    1.0000 </r>
       <r>  -23.8973    1.0000 </r>
       <r>  -23.8389    1.0000 </r>
       <r>  -23.7962    1.0000 </r>
       <r>  -23.0669    1.0000 </r>
       <r>  -22.8630    1.0000 </r>
       <r>  -22.8133    1.0000 </r>
       <r>  -22.7872    1.0000 </r>
       <r>  -22.7793    1.0000 </r>
       <r>  -22.7716    1.0000 </r>
       <r>  -22.7207    1.0000 </r>
       <r>  -22.6298    1.0000 </r>
       <r>  -21.7224    1.0000 </r>
       <r>  -21.7109    1.0000 </r>
       <r>  -21.5869    1.0000 </r>
       <r>  -21.5741    1.0000 </r>
       <r>  -20.9320    1.0000 </r>
       <r>  -20.8748    1.0000 </r>
       <r>  -20.8376    1.0000 </r>
       <r>  -19.1211    1.0000 </r>
       <r>  -19.1007    1.0000 </r>
       <r>  -18.9301    1.0000 </r>
       <r>  -18.5487    1.0000 </r>
       <r>  -18.5398    1.0000 </r>
       <r>  -18.4845    1.0000 </r>
       <r>  -17.8932    1.0000 </r>
       <r>  -17.8899    1.0000 </r>
       <r>  -17.5612    1.0000 </r>
       <r>  -16.5776    1.0000 </r>
       <r>  -16.5564    1.0000 </r>
       <r>  -16.3287    1.0000 </r>
       <r>  -15.8109    1.0000 </r>
       <r>  -15.8005    1.0000 </r>
       <r>  -15.7130    1.0000 </r>
       <r>  -15.6907    1.0000 </r>
       <r>  -15.0104    1.0000 </r>
       <r>  -14.9388    1.0000 </r>
       <r>  -14.7166    1.0000 </r>
       <r>  -14.6818    1.0000 </r>
       <r>  -14.5760    1.0000 </r>
       <r>  -14.3091    1.0000 </r>
       <r>  -14.2855    1.0000 </r>
       <r>  -14.2630    1.0000 </r>
       <r>  -14.2406    1.0000 </r>
       <r>  -14.2037    1.0000 </r>
       <r>  -14.1243    1.0000 </r>
       <r>  -13.6138    1.0000 </r>
       <r>  -13.3120    1.0000 </r>
       <r>  -12.8039    1.0000 </r>
       <r>  -12.7897    1.0000 </r>
       <r>  -12.4224    1.0000 </r>
       <r>  -12.4115    1.0000 </r>
       <r>  -12.0796    1.0000 </r>
       <r>  -12.0652    1.0000 </r>
       <r>  -11.8527    1.0000 </r>
       <r>  -11.7576    1.0000 </r>
       <r>  -11.6490    1.0000 </r>
       <r>  -11.4960    1.0000 </r>
       <r>  -11.4769    1.0000 </r>
       <r>  -11.2532    1.0000 </r>
       <r>  -11.2373    1.0000 </r>
       <r>  -11.2206    1.0000 </r>
       <r>  -11.1792    1.0000 </r>
       <r>  -11.1155    1.0000 </r>
       <r>  -11.1029    1.0000 </r>
       <r>  -11.0151    1.0000 </r>
       <r>  -10.9728    1.0000 </r>
       <r>  -10.5707    1.0000 </r>
       <r>  -10.4957    1.0000 </r>
       <r>  -10.3225    1.0000 </r>
       <r>  -10.2924    1.0000 </r>
       <r>  -10.2647    1.0000 </r>
       <r>  -10.2530    1.0000 </r>
       <r>  -10.1891    1.0000 </r>
       <r>  -10.1426    1.0000 </r>
       <r>  -10.0481    1.0000 </r>
       <r>  -10.0410    1.0000 </r>
       <r>   -9.9848    1.0000 </r>
       <r>   -9.1107    1.0000 </r>
       <r>   -8.9579    1.0000 </r>
       <r>   -8.8651    1.0000 </r>
       <r>   -8.8398    1.0000 </r>
       <r>   -8.8075    1.0000 </r>
       <r>   -8.8014    1.0000 </r>
       <r>   -8.8000    1.0000 </r>
       <r>   -8.7854    1.0000 </r>
       <r>   -8.7735    1.0000 </r>
       <r>   -8.7674    1.0000 </r>
       <r>   -8.7598    1.0000 </r>
       <r>   -8.7534    1.0000 </r>
       <r>   -8.7524    1.0000 </r>
       <r>   -8.7185    1.0000 </r>
       <r>   -8.6984    1.0000 </r>
       <r>   -8.6890    1.0000 </r>
       <r>   -8.6610    1.0000 </r>
       <r>   -8.6112    1.0000 </r>
       <r>   -8.5637    1.0000 </r>
       <r>   -8.5243    1.0000 </r>
       <r>   -8.5162    1.0000 </r>
       <r>   -8.4999    1.0000 </r>
       <r>   -8.4934    1.0000 </r>
       <r>   -8.4873    1.0000 </r>
       <r>   -7.8793    1.0000 </r>
       <r>   -7.8625    1.0000 </r>
       <r>   -7.8264    1.0000 </r>
       <r>   -7.2997    1.0000 </r>
       <r>   -7.2862    1.0000 </r>
       <r>   -7.2310    1.0000 </r>
[...]
       <r>   -27.1940     0.0000     0.0000 </r>
       <r>   -27.0950     0.0000     0.0000 </r>
       <r>   -26.9959     0.0000     0.0000 </r>
       <r>   -26.8968     0.0000     0.0000 </r>
       <r>   -26.7977     0.0000     0.0000 </r>
       <r>   -26.6987     0.0000     0.0000 </r>
       <r>   -26.5996     0.0000     0.0000 </r>
       <r>   -26.5005     0.0000     0.0000 </r>
       <r>   -26.4015     0.0000     0.0000 </r>
       <r>   -26.3024     0.0000     0.0000 </r>
       <r>   -26.2033     0.0000     0.0000 </r>
       <r>   -26.1043     0.0000     0.0000 </r>
       <r>   -26.0052     0.0000     0.0000 </r>
       <r>   -25.9061     0.0000     0.0000 </r>
       <r>   -25.8070    29.2277     2.8956 </r>
       <r>   -25.7080    40.3217     7.5283 </r>
       <r>   -25.6089    20.1875    10.0000 </r>
       <r>   -25.5098     0.0000    10.0000 </r>
       <r>   -25.4108     0.0000    10.0000 </r>
       <r>   -25.3117     0.0000    10.0000 </r>
       <r>   -25.2126     0.0000    10.0000 </r>
       <r>   -25.1135     0.0000    10.0000 </r>
       <r>   -25.0145     0.0000    10.0000 </r>
       <r>   -24.9154     0.0000    10.0000 </r>
       <r>   -24.8163     0.0000    10.0000 </r>
       <r>   -24.7173     0.0000    10.0000 </r>
       <r>   -24.6182     0.0000    10.0000 </r>
       <r>   -24.5191     0.0000    10.0000 </r>
       <r>   -24.4200     0.0000    10.0000 </r>
       <r>   -24.3210    28.0372    12.7777 </r>
       <r>   -24.2219    40.5051    17.6799 </r>
       <r>   -24.1228     0.0000    18.0000 </r>
       <r>   -24.0238     0.0000    18.0000 </r>
       <r>   -23.9247     0.0005    18.0000 </r>
       <r>   -23.8256    40.1623    21.9790 </r>
       <r>   -23.7265    20.1859    24.0000 </r>
       <r>   -23.6275     0.0000    24.0000 </r>
       <r>   -23.5284     0.0000    24.0000 </r>
       <r>   -23.4293     0.0000    24.0000 </r>
       <r>   -23.3303     0.0000    24.0000 </r>
       <r>   -23.2312     0.0000    24.0000 </r>
       <r>   -23.1321     0.0000    24.0000 </r>
       <r>   -23.0330     9.3794    24.9292 </r>
       <r>   -22.9340    16.7975    27.1644 </r>
       <r>   -22.8349     7.0252    27.9961 </r>
       <r>   -22.7358    59.1865    34.7644 </r>
       <r>   -22.6368    26.3611    39.4451 </r>
       <r>   -22.5377     0.0000    40.0000 </r>
       <r>   -22.4386     0.0000    40.0000 </r>
       <r>   -22.3395     0.0000    40.0000 </r>
       <r>   -22.2405     0.0000    40.0000 </r>
       <r>   -22.1414     0.0000    40.0000 </r>
       <r>   -22.0423     0.0000    40.0000 </r>
       <r>   -21.9433     0.0000    40.0000 </r>
       <r>   -21.8442     0.0000    40.0000 </r>
       <r>   -21.7451     0.0074    40.0007 </r>
       <r>   -21.6460    41.4721    44.1094 </r>
       <r>   -21.5470    30.6161    47.9999 </r>
       <r>   -21.4479     0.0000    48.0000 </r>
       <r>   -21.3488     0.0000    48.0000 </r>
       <r>   -21.2498     0.0000    48.0000 </r>
       <r>   -21.1507     0.0000    48.0000 </r>
       <r>   -21.0516     0.0000    48.0000 </r>
       <r>   -20.9525     0.0123    48.0012 </r>
       <r>   -20.8535    39.3138    52.0621 </r>
       <r>   -20.7544     0.0000    54.0000 </r>
       <r>   -20.6553     0.0000    54.0000 </r>
       <r>   -20.5563     0.0000    54.0000 </r>
       <r>   -20.4572     0.0000    54.0000 </r>
       <r>   -20.3581     0.0000    54.0000 </r>
       <r>   -20.2590     0.0000    54.0000 </r>
       <r>   -20.1600     0.0000    54.0000 </r>
       <r>   -20.0609     0.0000    54.0000 </r>
       <r>   -19.9618     0.0000    54.0000 </r>
       <r>   -19.8628     0.0000    54.0000 </r>
       <r>   -19.7637     0.0000    54.0000 </r>
       <r>   -19.6646     0.0000    54.0000 </r>
       <r>   -19.5656     0.0000    54.0000 </r>
       <r>   -19.4665     0.0000    54.0000 </r>
       <r>   -19.3674     0.0000    54.0000 </r>
       <r>   -19.2683     0.0000    54.0000 </r>
       <r>   -19.1693     0.0000    54.0000 </r>
       <r>   -19.0702    31.4049    57.1113 </r>
       <r>   -18.9711    15.2895    59.1482 </r>
       <r>   -18.8721     6.3914    60.0000 </r>
       <r>   -18.7730     0.0000    60.0000 </r>
       <r>   -18.6739     0.0000    60.0000 </r>
       <r>   -18.5748     0.0015    60.0002 </r>
       <r>   -18.4758    59.0071    65.8461 </r>
       <r>   -18.3767     0.0000    66.0000 </r>
       <r>   -18.2776     0.0000    66.0000 </r>
       <r>   -18.1786     0.0000    66.0000 </r>
       <r>   -18.0795     0.0000    66.0000 </r>
       <r>   -17.9804     0.0000    66.0000 </r>
       <r>   -17.8813    22.6404    68.2430 </r>
       <r>   -17.7823     8.1521    69.3744 </r>
       <r>   -17.6832     7.7414    70.4004 </r>
       <r>   -17.5841     8.1719    71.4767 </r>
       <r>   -17.4851     3.3635    72.0000 </r>
       <r>   -17.3860     0.0000    72.0000 </r>
       <r>   -17.2869     0.0000    72.0000 </r>
       <r>   -17.1878     0.0000    72.0000 </r>
       <r>   -17.0888     0.0000    72.0000 </r>
       <r>   -16.9897     0.0000    72.0000 </r>
       <r>   -16.8906     0.0000    72.0000 </r>
       <r>   -16.7916     0.0000    72.0000 </r>
       <r>   -16.6925     0.0000    72.0000 </r>
       <r>   -16.5934     0.1599    72.0158 </r>
       <r>   -16.4943    23.3763    75.1176 </r>
       <r>   -16.3953    11.7290    76.7289 </r>
       <r>   -16.2962     9.0827    78.0000 </r>
       <r>   -16.1971     0.0000    78.0000 </r>
       <r>   -16.0981     0.0000    78.0000 </r>
       <r>   -15.9990     0.0000    78.0000 </r>
       <r>   -15.8999     0.0000    78.0000 </r>
       <r>   -15.8008    17.0767    79.6918 </r>
       <r>   -15.7018    34.2609    84.2944 </r>
       <r>   -15.6027     0.0000    86.0000 </r>
       <r>   -15.5036     0.0000    86.0000 </r>
       <r>   -15.4046     0.0000    86.0000 </r>
       <r>   -15.3055     0.0000    86.0000 </r>
       <r>   -15.2064     0.0000    86.0000 </r>
       <r>   -15.1073     0.0000    86.0000 </r>
       <r>   -15.0083     3.9755    86.3939 </r>
       <r>   -14.9092    26.2376    90.0000 </r>
       <r>   -14.8101     0.0000    90.0000 </r>
       <r>   -14.7111     7.2000    90.7133 </r>
       <r>   -14.6120    21.7350    94.1533 </r>
       <r>   -14.5129     9.4183    96.0000 </r>
       <r>   -14.4138     0.0000    96.0000 </r>
       <r>   -14.3148    20.7848    98.0592 </r>
       <r>   -14.2157    45.4629   104.0375 </r>
       <r>   -14.1166    35.1584   107.8833 </r>
       <r>   -14.0176     0.0000   108.0000 </r>
       <r>   -13.9185     0.0000   108.0000 </r>
       <r>   -13.8194     0.0000   108.0000 </r>
       <r>   -13.7204     0.0000   108.0000 </r>
       <r>   -13.6213     1.0377   108.1028 </r>
       <r>   -13.5222    10.1872   109.4428 </r>
       <r>   -13.4231    12.2541   110.9475 </r>
       <r>   -13.3241     5.4608   111.6078 </r>
       <r>   -13.2250     2.0165   112.0000 </r>
       <r>   -13.1259     0.0000   112.0000 </r>
       <r>   -13.0269     0.0000   112.0000 </r>
       <r>   -12.9278     0.0000   112.0000 </r>
       <r>   -12.8287     0.0033   112.0003 </r>
       <r>   -12.7296    26.8907   114.6644 </r>
       <r>   -12.6306     3.6356   115.1269 </r>
       <r>   -12.5315    19.4672   117.1626 </r>
       <r>   -12.4324    15.3399   119.1533 </r>
       <r>   -12.3334     4.3695   120.0000 </r>
       <r>   -12.2343     0.0000   120.0000 </r>
       <r>   -12.1352     0.0000   120.0000 </r>
       <r>   -12.0361    13.2859   121.3163 </r>
       <r>   -11.9371    28.3490   124.5089 </r>
       <r>   -11.8380    10.5918   125.9827 </r>
       <r>   -11.7389     9.5291   126.9441 </r>
       <r>   -11.6399    19.4737   129.9293 </r>
       <r>   -11.5408    11.2344   131.1130 </r>
       <r>   -11.4417    13.6244   132.7165 </r>
       <r>   -11.3426    11.4897   134.0717 </r>
       <r>   -11.2436    18.8854   136.1378 </r>
       <r>   -11.1445    45.5277   141.9115 </r>
       <r>   -11.0454    41.9371   147.1218 </r>
       <r>   -10.9464    25.9035   149.9998 </r>
       <r>   -10.8473     0.0000   150.0000 </r>
       <r>   -10.7482     0.0000   150.0000 </r>
       <r>   -10.6491     0.0000   150.0000 </r>
       <r>   -10.5501     9.0725   150.8988 </r>
       <r>   -10.4510    20.1872   154.0000 </r>
       <r>   -10.3519     0.0001   154.0000 </r>
       <r>   -10.2529    71.9087   161.1241 </r>
       <r>   -10.1538    30.6792   165.0394 </r>
       <r>   -10.0547     3.5237   166.3491 </r>
       <r>    -9.9556    20.1871   172.0000 </r>
       <r>    -9.8566     0.0000   172.0000 </r>
       <r>    -9.7575     0.0000   172.0000 </r>
       <r>    -9.6584     0.0000   172.0000 </r>
       <r>    -9.5594     0.0000   172.0000 </r>
       <r>    -9.4603     0.0000   172.0000 </r>
       <r>    -9.3612     0.0000   172.0000 </r>
       <r>    -9.2621     0.0000   172.0000 </r>
       <r>    -9.1631     0.0000   172.0000 </r>
       <r>    -9.0640    17.4113   173.7250 </r>
       <r>    -8.9649    13.8718   175.6413 </r>
       <r>    -8.8659     3.5565   176.3524 </r>
       <r>    -8.7668   133.2822   191.1049 </r>
       <r>    -8.6677    73.3007   205.2620 </r>
       <r>    -8.5686    35.1794   209.4853 </r>
       <r>    -8.4696    99.8546   219.8927 </r>
       <r>    -8.3705     0.0000   220.0000 </r>
       <r>    -8.2714     0.0000   220.0000 </r>
       <r>    -8.1724     0.0000   220.0000 </r>
       <r>    -8.0733     0.0000   220.0000 </r>
       <r>    -7.9742     0.0000   220.0000 </r>
       <r>    -7.8751    12.8802   221.2761 </r>
       <r>    -7.7761    20.1875   226.0000 </r>
       <r>    -7.6770     0.0000   226.0000 </r>
       <r>    -7.5779     0.0000   226.0000 </r>
       <r>    -7.4789     0.0000   226.0000 </r>
       <r>    -7.3798     0.0000   226.0000 </r>
       <r>    -7.2807    36.2330   229.5897 </r>
       <r>    -7.1817    20.1875   232.0000 </r>
       <r>    -7.0826     0.0000   232.0000 </r>
       <r>    -6.9835     0.0000   232.0000 </r>
       <r>    -6.8844     0.0000   232.0000 </r>
       <r>    -6.7854     7.9975   232.7923 </r>
       <r>    -6.6863    20.1875   238.0000 </r>
       <r>    -6.5872     0.0000   238.0000 </r>
       <r>    -6.4882     0.0000   238.0000 </r>
       <r>    -6.3891     0.0000   238.0000 </r>
       <r>    -6.2900     0.0000   238.0000 </r>
       <r>    -6.1909     0.0000   238.0000 </r>
       <r>    -6.0919    80.6252   245.9876 </r>
       <r>    -5.9928    10.2753   247.0180 </r>
       <r>    -5.8937    20.1869   250.0000 </r>
       <r>    -5.7947     0.0000   250.0000 </r>
       <r>    -5.6956    80.5762   257.9828 </r>
       <r>    -5.5965     0.0000   258.0000 </r>
       <r>    -5.4974     0.0000   258.0000 </r>
       <r>    -5.3984     0.0000   258.0000 </r>
       <r>    -5.2993     0.0000   258.0000 </r>
       <r>    -5.2002     0.0000   258.0000 </r>
       <r>    -5.1012     0.0000   258.0000 </r>
       <r>    -5.0021     0.0000   258.0000 </r>
       <r>    -4.9030     0.0000   258.0000 </r>
       <r>    -4.8039     0.0000   258.0000 </r>
       <r>    -4.7049     0.0000   258.0000 </r>
       <r>    -4.6058     0.0000   258.0000 </r>
       <r>    -4.5067     0.0000   258.0000 </r>
       <r>    -4.4077     0.0000   258.0000 </r>
       <r>    -4.3086     0.0000   258.0000 </r>
       <r>    -4.2095     0.0000   258.0000 </r>
       <r>    -4.1104     0.0000   258.0000 </r>
       <r>    -4.0114     0.0000   258.0000 </r>
       <r>    -3.9123     0.0337   258.0033 </r>
       <r>    -3.8132    60.4611   263.9933 </r>
       <r>    -3.7142     0.0000   264.0000 </r>
       <r>    -3.6151     0.0000   264.0000 </r>
       <r>    -3.5160     0.0000   264.0000 </r>
       <r>    -3.4169     0.0000   264.0000 </r>
       <r>    -3.3179     0.0000   264.0000 </r>
       <r>    -3.2188     0.0000   264.0000 </r>
       <r>    -3.1197     0.0200   264.0020 </r>
       <r>    -3.0207    40.5069   268.0150 </r>
       <r>    -2.9216     0.0000   270.0000 </r>
       <r>    -2.8225     0.0000   270.0000 </r>
       <r>    -2.7234     0.0000   270.0000 </r>
       <r>    -2.6244     0.0000   270.0000 </r>
       <r>    -2.5253     0.0000   270.0000 </r>
       <r>    -2.4262     0.0000   270.0000 </r>
       <r>    -2.3272     0.0000   270.0000 </r>
       <r>    -2.2281     0.0000   270.0000 </r>
       <r>    -2.1290     0.0000   270.0000 </r>
       <r>    -2.0299     0.0000   270.0000 </r>
       <r>    -1.9309     0.0000   270.0000 </r>
       <r>    -1.8318     0.0000   270.0000 </r>
       <r>    -1.7327     0.0000   270.0000 </r>
       <r>    -1.6337     0.0000   270.0000 </r>
       <r>    -1.5346     0.0000   270.0000 </r>
       <r>    -1.4355     0.0000   270.0000 </r>
       <r>    -1.3365     0.0000   270.0000 </r>
       <r>    -1.2374     0.0000   270.0000 </r>
       <r>    -1.1383     0.5198   270.0515 </r>
       <r>    -1.0392    55.7973   276.6618 </r>
       <r>    -0.9402    34.5451   282.9225 </r>
       <r>    -0.8411    15.5747   286.0431 </r>
       <r>    -0.7420    35.3132   289.9990 </r>
       <r>    -0.6430     0.0000   290.0000 </r>
       <r>    -0.5439    35.1778   293.4851 </r>
       <r>    -0.4448    45.8998   299.0143 </r>
       <r>    -0.3457    26.9877   301.8739 </r>
       <r>    -0.2467     0.0002   302.0000 </r>
       <r>    -0.1476    32.2775   305.1978 </r>
       <r>    -0.0485    20.8568   308.0000 </r>
       <r>     0.0505     0.0000   308.0000 </r>
       <r>     0.1496     8.4341   308.8356 </r>
       <r>     0.2487    23.9401   312.0722 </r>
       <r>     0.3478    31.5955   315.7304 </r>
       <r>     0.4468    16.9971   317.7506 </r>
       <r>     0.5459    32.4703   321.4509 </r>
       <r>     0.6450    24.8476   324.1284 </r>
       <r>     0.7440    47.5463   329.3108 </r>
       <r>     0.8431    17.6859   331.5190 </r>
       <r>     0.9422    40.6142   336.9243 </r>
       <r>     1.0413    80.0494   345.9307 </r>
       <r>     1.1403    40.7995   351.0757 </r>
       <r>     1.2394     2.3550   352.0000 </r>
       <r>     1.3385     0.0000   352.0000 </r>
       <r>     1.4375     0.0000   352.0000 </r>
       <r>     1.5366     0.0000   352.0000 </r>
       <r>     1.6357     0.0000   352.0000 </r>
       <r>     1.7348     0.0000   352.0000 </r>
       <r>     1.8338     0.0000   352.0000 </r>
       <r>     1.9329     0.0000   352.0000 </r>
       <r>     2.0320     0.0000   352.0000 </r>
       <r>     2.1310     0.0000   352.0000 </r>
       <r>     2.2301     0.0000   352.0000 </r>
       <r>     2.3292     0.0000   352.0000 </r>
       <r>     2.4283     0.0000   352.0000 </r>
       <r>     2.5273     0.0000   352.0000 </r>
      </set>
     </set>
    </array>
   </total>
  </dos>
 </calculation>
 <structure name="finalpos" >
  <crystal>
   <varray name="basis" >
    <v>      21.68139555       0.06684725       0.00000000 </v>
    <v>     -10.78385089      18.67842190       0.00000000 </v>
    <v>       0.00000000       0.00000000      20.00000000 </v>
   </varray>
   <i name="volume">   8113.90248362 </i>
   <varray name="rec_basis" >
    <v>       0.04604054       0.02658117       0.00000000 </v>
    <v>      -0.00016477       0.05344258       0.00000000 </v>
    <v>       0.00000000       0.00000000       0.05000000 </v>
   </varray>
  </crystal>
  <varray name="positions" >
   <v>       0.64235728       0.17329606       0.52720176 </v>
   <v>       0.82505607       0.46595590       0.51736100 </v>
   <v>       0.53322748       0.35837039       0.51784177 </v>
   <v>       0.35215445       0.82231562       0.46749875 </v>
   <v>       0.17403780       0.52854136       0.48638514 </v>
   <v>       0.46752179       0.64307049       0.48526439 </v>
   <v>       0.36064176       0.51035614       0.44376052 </v>
   <v>       0.34907297       0.50561503       0.53205644 </v>
   <v>       0.14657930       0.63004044       0.43064670 </v>
   <v>       0.15573367       0.65207034       0.51712234 </v>
   <v>       0.47959901       0.85348079       0.41737437 </v>
   <v>       0.49239131       0.83813518       0.50235806 </v>
   <v>       0.64107536       0.48862653       0.56211240 </v>
   <v>       0.65465911       0.49555312       0.47402842 </v>
   <v>       0.84949089       0.36309931       0.57119123 </v>
   <v>       0.84008194       0.34039737       0.48482494 </v>
   <v>       0.51629921       0.14491406       0.57942011 </v>
   <v>       0.50285139       0.16030113       0.49461739 </v>
   <v>       0.59294274       0.28952961       0.51055948 </v>
   <v>       0.70874461       0.30009846       0.51113592 </v>
   <v>       0.69778323       0.40560773       0.50685525 </v>
   <v>       0.60750451       0.19024489       0.51600746 </v>
   <v>       0.80736030       0.41337167       0.50901455 </v>
   <v>       0.58510102       0.39199595       0.50676855 </v>
   <v>       0.40498445       0.70929176       0.48876534 </v>
   <v>       0.28797461       0.69560416       0.48665931 </v>
   <v>       0.30193669       0.59199698       0.49489355 </v>
   <v>       0.38769707       0.80663415       0.47992538 </v>
   <v>       0.19107886       0.58138042       0.49163588 </v>
   <v>       0.41583805       0.60874943       0.49641127 </v>
   <v>       0.53419875       0.50315237       0.56367986 </v>
   <v>       0.43998996       0.54969997       0.66981710 </v>
   <v>       0.97208430       0.46622059       0.56387585 </v>
   <v>       0.11986382       0.56551716       0.66098538 </v>
   <v>       0.49343703       0.02132042       0.56323477 </v>
   <v>       0.44098039       0.86540879       0.65009716 </v>
   <v>       0.46999331       0.49987331       0.44111822 </v>
   <v>       0.56612704       0.45494360       0.33521183 </v>
   <v>       0.02521176       0.52514356       0.43768507 </v>
   <v>       0.87772295       0.42556963       0.34038618 </v>
   <v>       0.50033009       0.97630447       0.43328835 </v>
   <v>       0.54998066       0.13125442       0.34598990 </v>
   <v>       0.62730002       0.36170636       0.50771225 </v>
   <v>       0.63686163       0.26262526       0.51207390 </v>
   <v>       0.73528251       0.37092185       0.50866011 </v>
   <v>       0.37216067       0.63728731       0.49360381 </v>
   <v>       0.35976197       0.73453416       0.48564033 </v>
   <v>       0.26294978       0.62509369       0.49133316 </v>
   <v>       0.44783210       0.51599540       0.49744018 </v>
   <v>       0.48102990       0.51807625       0.55904704 </v>
   <v>       0.45870138       0.53570334       0.62017579 </v>
   <v>       0.38805413       0.53212949       0.49165661 </v>
   <v>       0.06693220       0.54928002       0.49166793 </v>
   <v>       0.03968684       0.51883284       0.55518433 </v>
   <v>       0.08348553       0.54394124       0.61380832 </v>
   <v>       0.14232237       0.60828964       0.48133822 </v>
   <v>       0.48105078       0.93055933       0.48450158 </v>
   <v>       0.47729265       0.95372671       0.54991147 </v>
   <v>       0.45691644       0.90544204       0.60549730 </v>
   <v>       0.46295576       0.85502587       0.46913596 </v>
   <v>       0.52334508       0.48521399       0.44570861 </v>
   <v>       0.55605967       0.48661170       0.50744960 </v>
   <v>       0.54644306       0.46836031       0.38458524 </v>
   <v>       0.61458882       0.46869675       0.51351184 </v>
   <v>       0.95768449       0.47253795       0.44633726 </v>
   <v>       0.93032009       0.44241849       0.50993199 </v>
   <v>       0.91395897       0.44722694       0.38765435 </v>
   <v>       0.85446744       0.38462277       0.52028558 </v>
   <v>       0.51604157       0.04374187       0.44656014 </v>
   <v>       0.51289680       0.06707230       0.51204516 </v>
   <v>       0.53526378       0.09166375       0.39080812 </v>
   <v>       0.53215058       0.14290513       0.52745347 </v>
  </varray>
 </structure>
</modeling>
