<?xml version="1.0" encoding="ISO-8859-1"?>
<modeling>
 <generator>
  <i name="program" type="string">vasp </i>
  <i name="version" type="string">5.4.4.18Apr17-6-g9f103f2a35  </i>
  <i name="subversion" type="string">(build Jun 07 2020 16:50:00) complex            parallel </i>
  <i name="platform" type="string">LinuxIFC </i>
  <i name="date" type="string">2023 03 05 </i>
  <i name="time" type="string">13:38:59 </i>
 </generator>
 <incar>
  <i type="string" name="SYSTEM">Simulation for cell shape cell volume r</i>
  <i type="int" name="ISTART">     1</i>
  <i type="string" name="PREC">high</i>
  <i type="string" name="ALGO">48</i>
  <i type="int" name="ICHARG">    11</i>
  <i type="int" name="NELM">   200</i>
  <i type="int" name="IBRION">    -1</i>
  <i name="EDIFF">      0.00001000</i>
  <i name="EDIFFG">     -0.01000000</i>
  <i type="int" name="NSW">     0</i>
  <i type="int" name="ISIF">     2</i>
  <i name="ENCUT">    500.00000000</i>
  <i name="POTIM">      0.30000000</i>
  <i type="string" name="LREAL">A</i>
  <i type="int" name="ISMEAR">     0</i>
  <i name="SIGMA">      0.01000000</i>
  <i type="int" name="NWRITE">     0</i>
  <i type="logical" name="LWAVE"> F  </i>
  <i type="logical" name="LCHARG"> F  </i>
  <v type="int" name="KPOINT_BSE">    -1     0     0     0</v>
  <i type="int" name="NELM">   200</i>
  <i type="string" name="GGA">PE</i>
 </incar>
 <structure name="primitive_cell" >
  <crystal>
   <varray name="basis" >
    <v>      21.44931749      -0.05643362       0.00000000 </v>
    <v>     -10.77340020      18.55630764       0.00000000 </v>
    <v>      -0.00000000       0.00000000      20.00000000 </v>
   </varray>
   <i name="volume">   7948.24304266 </i>
   <varray name="rec_basis" >
    <v>       0.04669285       0.02710888       0.00000000 </v>
    <v>       0.00014200       0.05397248       0.00000000 </v>
    <v>       0.00000000       0.00000000       0.05000000 </v>
   </varray>
  </crystal>
  <varray name="positions" >
   <v>       0.48091962       0.18054822      -0.45059255 </v>
   <v>      -0.45692631       0.19302740      -0.45397563 </v>
   <v>      -0.43293924       0.14490293      -0.46363021 </v>
   <v>      -0.39246544       0.26981234      -0.44948823 </v>
   <v>      -0.40656856       0.32376284      -0.44925185 </v>
   <v>       0.45786796       0.03944246      -0.49310103 </v>
   <v>      -0.47134615       0.07183752      -0.47980606 </v>
   <v>      -0.37785496       0.16890150      -0.46114076 </v>
   <v>      -0.32599352       0.27829657      -0.44931035 </v>
   <v>      -0.46472427       0.37464624      -0.46156373 </v>
   <v>      -0.34824699       0.39034521      -0.44986478 </v>
   <v>       0.42541415      -0.02986557       0.49006500 </v>
   <v>      -0.43358791       0.03383070      -0.48355785 </v>
   <v>       0.36752400      -0.05657595       0.47917260 </v>
   <v>      -0.27176730       0.34672010      -0.44975427 </v>
   <v>      -0.43332743       0.42970630      -0.46414287 </v>
   <v>       0.42437180       0.37296302      -0.47327487 </v>
   <v>      -0.37572692       0.06051937      -0.47252912 </v>
   <v>      -0.27989602       0.40481213      -0.44994873 </v>
   <v>      -0.36082488       0.45424758      -0.45441425 </v>
   <v>       0.46320498      -0.06783994       0.48620479 </v>
   <v>      -0.46601634      -0.03545669       0.49956284 </v>
   <v>       0.45633783       0.43085555      -0.48398962 </v>
   <v>      -0.46758351       0.46824147      -0.48012148 </v>
   <v>      -0.19513516       0.35924579      -0.45388349 </v>
   <v>      -0.31107376      -0.48339717      -0.45100156 </v>
   <v>      -0.18306937       0.30946310      -0.44985068 </v>
   <v>       0.42495157      -0.14085218       0.46984918 </v>
   <v>       0.36989822      -0.16495636       0.46686139 </v>
   <v>      -0.16973558       0.46307451      -0.46209581 </v>
   <v>       0.42014034       0.46377916       0.49942375 </v>
   <v>      -0.42832041      -0.46097222      -0.49316379 </v>
   <v>      -0.14640812       0.43158763      -0.46397465 </v>
   <v>       0.44938024      -0.18870924       0.46042556 </v>
   <v>       0.45945809      -0.46538660       0.48654255 </v>
   <v>      -0.46447675      -0.42803572       0.49032553 </v>
   <v>      -0.48826788      -0.17571272       0.45740176 </v>
   <v>      -0.07332570       0.46564754      -0.48017883 </v>
   <v>       0.31870597      -0.27437722       0.45426206 </v>
   <v>      -0.04212805       0.42628369      -0.49271580 </v>
   <v>       0.38523696      -0.26570694       0.45554835 </v>
   <v>      -0.43250044      -0.37014801       0.47961338 </v>
   <v>      -0.05958540      -0.42626958      -0.47412502 </v>
   <v>       0.42549027      -0.42652192       0.47082078 </v>
   <v>       0.30335768       0.48734465       0.45617650 </v>
   <v>       0.17526610      -0.30627908       0.45089493 </v>
   <v>      -0.03401693      -0.45833148      -0.48475402 </v>
   <v>       0.35329299      -0.45045903       0.46033000 </v>
   <v>       0.26454876      -0.34282205       0.45428682 </v>
   <v>       0.45722002      -0.37147352       0.46860417 </v>
   <v>       0.18775486      -0.35561434       0.45709903 </v>
   <v>       0.39946352      -0.31960065       0.45582975 </v>
   <v>       0.02716062       0.46231254       0.49015104 </v>
   <v>       0.03527471      -0.42230449       0.49807919 </v>
   <v>       0.05284437       0.43028546       0.47990249 </v>
   <v>       0.06636797      -0.46170736       0.48524258 </v>
   <v>       0.27279539      -0.40084612       0.45496586 </v>
   <v>       0.34116229      -0.38625155       0.45578218 </v>
   <v>       0.13933547      -0.42774424       0.46869651 </v>
   <v>       0.16284355      -0.45908810       0.46745657 </v>
  </varray>
 </structure>
 <varray name="primitive_index" >
  <v type="int" >        1 </v>
  <v type="int" >       28 </v>
  <v type="int" >       20 </v>
  <v type="int" >       26 </v>
  <v type="int" >        9 </v>
  <v type="int" >       13 </v>
  <v type="int" >       43 </v>
  <v type="int" >       56 </v>
  <v type="int" >        8 </v>
  <v type="int" >       60 </v>
  <v type="int" >       41 </v>
  <v type="int" >       35 </v>
  <v type="int" >       44 </v>
  <v type="int" >       49 </v>
  <v type="int" >       25 </v>
  <v type="int" >       24 </v>
  <v type="int" >       59 </v>
  <v type="int" >       55 </v>
  <v type="int" >        7 </v>
  <v type="int" >       29 </v>
  <v type="int" >       36 </v>
  <v type="int" >       19 </v>
  <v type="int" >       48 </v>
  <v type="int" >       47 </v>
  <v type="int" >       27 </v>
  <v type="int" >        2 </v>
  <v type="int" >        3 </v>
  <v type="int" >       14 </v>
  <v type="int" >       50 </v>
  <v type="int" >       58 </v>
  <v type="int" >       23 </v>
  <v type="int" >       17 </v>
  <v type="int" >       22 </v>
  <v type="int" >       33 </v>
  <v type="int" >       40 </v>
  <v type="int" >       39 </v>
  <v type="int" >        4 </v>
  <v type="int" >       45 </v>
  <v type="int" >       11 </v>
  <v type="int" >       15 </v>
  <v type="int" >       31 </v>
  <v type="int" >       53 </v>
  <v type="int" >       57 </v>
  <v type="int" >       18 </v>
  <v type="int" >        5 </v>
  <v type="int" >        6 </v>
  <v type="int" >       46 </v>
  <v type="int" >       34 </v>
  <v type="int" >       30 </v>
  <v type="int" >       54 </v>
  <v type="int" >       32 </v>
  <v type="int" >       12 </v>
  <v type="int" >       37 </v>
  <v type="int" >       21 </v>
  <v type="int" >       51 </v>
  <v type="int" >       38 </v>
  <v type="int" >       10 </v>
  <v type="int" >       42 </v>
  <v type="int" >       16 </v>
  <v type="int" >       52 </v>
 </varray>
 <kpoints>
  <generation param="listgenerated">
   <i name="divisions" type="int">      20 </i>
   <v>       0.00000000       0.00000000       0.00000000 </v>
   <v>       0.50000000      -0.50000000       0.00000000 </v>
   <v>       0.66751425      -0.33224596       0.00000000 </v>
   <v>       0.50000000       0.00000000       0.00000000 </v>
   <v>       0.33248575       0.33224596       0.00000000 </v>
   <v>       0.00000000       0.50000000       0.00000000 </v>
   <v>       0.00000000       0.00000000       0.00000000 </v>
  </generation>
  <varray name="kpointlist" >
   <v>       0.00000000       0.00000000       0.00000000 </v>
   <v>       0.02631579      -0.02631579       0.00000000 </v>
   <v>       0.05263158      -0.05263158       0.00000000 </v>
   <v>       0.07894737      -0.07894737       0.00000000 </v>
   <v>       0.10526316      -0.10526316       0.00000000 </v>
   <v>       0.13157895      -0.13157895       0.00000000 </v>
   <v>       0.15789474      -0.15789474       0.00000000 </v>
   <v>       0.18421053      -0.18421053       0.00000000 </v>
   <v>       0.21052632      -0.21052632       0.00000000 </v>
   <v>       0.23684211      -0.23684211       0.00000000 </v>
   <v>       0.26315789      -0.26315789       0.00000000 </v>
   <v>       0.28947368      -0.28947368       0.00000000 </v>
   <v>       0.31578947      -0.31578947       0.00000000 </v>
   <v>       0.34210526      -0.34210526       0.00000000 </v>
   <v>       0.36842105      -0.36842105       0.00000000 </v>
   <v>       0.39473684      -0.39473684       0.00000000 </v>
   <v>       0.42105263      -0.42105263       0.00000000 </v>
   <v>       0.44736842      -0.44736842       0.00000000 </v>
   <v>       0.47368421      -0.47368421       0.00000000 </v>
   <v>       0.50000000      -0.50000000       0.00000000 </v>
   <v>       0.50000000      -0.50000000       0.00000000 </v>
   <v>       0.50881654      -0.49117084       0.00000000 </v>
   <v>       0.51763308      -0.48234168       0.00000000 </v>
   <v>       0.52644962      -0.47351252       0.00000000 </v>
   <v>       0.53526616      -0.46468336       0.00000000 </v>
   <v>       0.54408270      -0.45585420       0.00000000 </v>
   <v>       0.55289924      -0.44702504       0.00000000 </v>
   <v>       0.56171578      -0.43819588       0.00000000 </v>
   <v>       0.57053232      -0.42936672       0.00000000 </v>
   <v>       0.57934886      -0.42053756       0.00000000 </v>
   <v>       0.58816540      -0.41170840       0.00000000 </v>
   <v>       0.59698194      -0.40287924       0.00000000 </v>
   <v>       0.60579848      -0.39405008       0.00000000 </v>
   <v>       0.61461501      -0.38522092       0.00000000 </v>
   <v>       0.62343155      -0.37639176       0.00000000 </v>
   <v>       0.63224809      -0.36756260       0.00000000 </v>
   <v>       0.64106463      -0.35873344       0.00000000 </v>
   <v>       0.64988117      -0.34990428       0.00000000 </v>
   <v>       0.65869771      -0.34107512       0.00000000 </v>
   <v>       0.66751425      -0.33224596       0.00000000 </v>
   <v>       0.66751425      -0.33224596       0.00000000 </v>
   <v>       0.65869771      -0.31475933       0.00000000 </v>
   <v>       0.64988117      -0.29727270       0.00000000 </v>
   <v>       0.64106463      -0.27978607       0.00000000 </v>
   <v>       0.63224809      -0.26229944       0.00000000 </v>
   <v>       0.62343155      -0.24481281       0.00000000 </v>
   <v>       0.61461501      -0.22732618       0.00000000 </v>
   <v>       0.60579848      -0.20983955       0.00000000 </v>
   <v>       0.59698194      -0.19235292       0.00000000 </v>
   <v>       0.58816540      -0.17486629       0.00000000 </v>
   <v>       0.57934886      -0.15737966       0.00000000 </v>
   <v>       0.57053232      -0.13989303       0.00000000 </v>
   <v>       0.56171578      -0.12240640       0.00000000 </v>
   <v>       0.55289924      -0.10491978       0.00000000 </v>
   <v>       0.54408270      -0.08743315       0.00000000 </v>
   <v>       0.53526616      -0.06994652       0.00000000 </v>
   <v>       0.52644962      -0.05245989       0.00000000 </v>
   <v>       0.51763308      -0.03497326       0.00000000 </v>
   <v>       0.50881654      -0.01748663       0.00000000 </v>
   <v>       0.50000000       0.00000000       0.00000000 </v>
   <v>       0.50000000       0.00000000       0.00000000 </v>
   <v>       0.49118346       0.01748663       0.00000000 </v>
   <v>       0.48236692       0.03497326       0.00000000 </v>
   <v>       0.47355038       0.05245989       0.00000000 </v>
   <v>       0.46473384       0.06994652       0.00000000 </v>
   <v>       0.45591730       0.08743315       0.00000000 </v>
   <v>       0.44710076       0.10491978       0.00000000 </v>
   <v>       0.43828422       0.12240640       0.00000000 </v>
   <v>       0.42946768       0.13989303       0.00000000 </v>
   <v>       0.42065114       0.15737966       0.00000000 </v>
   <v>       0.41183460       0.17486629       0.00000000 </v>
   <v>       0.40301806       0.19235292       0.00000000 </v>
   <v>       0.39420152       0.20983955       0.00000000 </v>
   <v>       0.38538499       0.22732618       0.00000000 </v>
   <v>       0.37656845       0.24481281       0.00000000 </v>
   <v>       0.36775191       0.26229944       0.00000000 </v>
   <v>       0.35893537       0.27978607       0.00000000 </v>
   <v>       0.35011883       0.29727270       0.00000000 </v>
   <v>       0.34130229       0.31475933       0.00000000 </v>
   <v>       0.33248575       0.33224596       0.00000000 </v>
   <v>       0.33248575       0.33224596       0.00000000 </v>
   <v>       0.31498650       0.34107512       0.00000000 </v>
   <v>       0.29748725       0.34990428       0.00000000 </v>
   <v>       0.27998800       0.35873344       0.00000000 </v>
   <v>       0.26248875       0.36756260       0.00000000 </v>
   <v>       0.24498950       0.37639176       0.00000000 </v>
   <v>       0.22749025       0.38522092       0.00000000 </v>
   <v>       0.20999100       0.39405008       0.00000000 </v>
   <v>       0.19249175       0.40287924       0.00000000 </v>
   <v>       0.17499250       0.41170840       0.00000000 </v>
   <v>       0.15749325       0.42053756       0.00000000 </v>
   <v>       0.13999400       0.42936672       0.00000000 </v>
   <v>       0.12249475       0.43819588       0.00000000 </v>
   <v>       0.10499550       0.44702504       0.00000000 </v>
   <v>       0.08749625       0.45585420       0.00000000 </v>
   <v>       0.06999700       0.46468336       0.00000000 </v>
   <v>       0.05249775       0.47351252       0.00000000 </v>
   <v>       0.03499850       0.48234168       0.00000000 </v>
   <v>       0.01749925       0.49117084       0.00000000 </v>
   <v>       0.00000000       0.50000000       0.00000000 </v>
   <v>       0.00000000       0.50000000       0.00000000 </v>
   <v>       0.00000000       0.47368421       0.00000000 </v>
   <v>       0.00000000       0.44736842       0.00000000 </v>
   <v>       0.00000000       0.42105263       0.00000000 </v>
   <v>       0.00000000       0.39473684       0.00000000 </v>
   <v>       0.00000000       0.36842105       0.00000000 </v>
   <v>       0.00000000       0.34210526       0.00000000 </v>
   <v>       0.00000000       0.31578947       0.00000000 </v>
   <v>       0.00000000       0.28947368       0.00000000 </v>
   <v>       0.00000000       0.26315789       0.00000000 </v>
   <v>       0.00000000       0.23684211       0.00000000 </v>
   <v>       0.00000000       0.21052632       0.00000000 </v>
   <v>       0.00000000       0.18421053       0.00000000 </v>
   <v>       0.00000000       0.15789474       0.00000000 </v>
   <v>       0.00000000       0.13157895       0.00000000 </v>
   <v>       0.00000000       0.10526316       0.00000000 </v>
   <v>       0.00000000       0.07894737       0.00000000 </v>
   <v>       0.00000000       0.05263158       0.00000000 </v>
   <v>       0.00000000       0.02631579       0.00000000 </v>
   <v>       0.00000000       0.00000000       0.00000000 </v>
  </varray>
  <varray name="weights" >
   <v>       0.00833333 </v>
   <v>       0.00833333 </v>
   <v>       0.00833333 </v>
   <v>       0.00833333 </v>
   <v>       0.00833333 </v>
   <v>       0.00833333 </v>
   <v>       0.00833333 </v>
   <v>       0.00833333 </v>
   <v>       0.00833333 </v>
   <v>       0.00833333 </v>
   <v>       0.00833333 </v>
   <v>       0.00833333 </v>
   <v>       0.00833333 </v>
   <v>       0.00833333 </v>
   <v>       0.00833333 </v>
   <v>       0.00833333 </v>
   <v>       0.00833333 </v>
   <v>       0.00833333 </v>
   <v>       0.00833333 </v>
   <v>       0.00833333 </v>
   <v>       0.00833333 </v>
   <v>       0.00833333 </v>
   <v>       0.00833333 </v>
   <v>       0.00833333 </v>
   <v>       0.00833333 </v>
   <v>       0.00833333 </v>
   <v>       0.00833333 </v>
   <v>       0.00833333 </v>
   <v>       0.00833333 </v>
   <v>       0.00833333 </v>
   <v>       0.00833333 </v>
   <v>       0.00833333 </v>
   <v>       0.00833333 </v>
   <v>       0.00833333 </v>
   <v>       0.00833333 </v>
   <v>       0.00833333 </v>
   <v>       0.00833333 </v>
   <v>       0.00833333 </v>
   <v>       0.00833333 </v>
   <v>       0.00833333 </v>
   <v>       0.00833333 </v>
   <v>       0.00833333 </v>
   <v>       0.00833333 </v>
   <v>       0.00833333 </v>
   <v>       0.00833333 </v>
   <v>       0.00833333 </v>
   <v>       0.00833333 </v>
   <v>       0.00833333 </v>
   <v>       0.00833333 </v>
   <v>       0.00833333 </v>
   <v>       0.00833333 </v>
   <v>       0.00833333 </v>
   <v>       0.00833333 </v>
   <v>       0.00833333 </v>
   <v>       0.00833333 </v>
   <v>       0.00833333 </v>
   <v>       0.00833333 </v>
   <v>       0.00833333 </v>
   <v>       0.00833333 </v>
   <v>       0.00833333 </v>
   <v>       0.00833333 </v>
   <v>       0.00833333 </v>
   <v>       0.00833333 </v>
   <v>       0.00833333 </v>
   <v>       0.00833333 </v>
   <v>       0.00833333 </v>
   <v>       0.00833333 </v>
   <v>       0.00833333 </v>
   <v>       0.00833333 </v>
   <v>       0.00833333 </v>
   <v>       0.00833333 </v>
   <v>       0.00833333 </v>
   <v>       0.00833333 </v>
   <v>       0.00833333 </v>
   <v>       0.00833333 </v>
   <v>       0.00833333 </v>
   <v>       0.00833333 </v>
   <v>       0.00833333 </v>
   <v>       0.00833333 </v>
   <v>       0.00833333 </v>
   <v>       0.00833333 </v>
   <v>       0.00833333 </v>
   <v>       0.00833333 </v>
   <v>       0.00833333 </v>
   <v>       0.00833333 </v>
   <v>       0.00833333 </v>
   <v>       0.00833333 </v>
   <v>       0.00833333 </v>
   <v>       0.00833333 </v>
   <v>       0.00833333 </v>
   <v>       0.00833333 </v>
   <v>       0.00833333 </v>
   <v>       0.00833333 </v>
   <v>       0.00833333 </v>
   <v>       0.00833333 </v>
   <v>       0.00833333 </v>
   <v>       0.00833333 </v>
   <v>       0.00833333 </v>
   <v>       0.00833333 </v>
   <v>       0.00833333 </v>
   <v>       0.00833333 </v>
   <v>       0.00833333 </v>
   <v>       0.00833333 </v>
   <v>       0.00833333 </v>
   <v>       0.00833333 </v>
   <v>       0.00833333 </v>
   <v>       0.00833333 </v>
   <v>       0.00833333 </v>
   <v>       0.00833333 </v>
   <v>       0.00833333 </v>
   <v>       0.00833333 </v>
   <v>       0.00833333 </v>
   <v>       0.00833333 </v>
   <v>       0.00833333 </v>
   <v>       0.00833333 </v>
   <v>       0.00833333 </v>
   <v>       0.00833333 </v>
   <v>       0.00833333 </v>
   <v>       0.00833333 </v>
   <v>       0.00833333 </v>
  </varray>
 </kpoints>
 <parameters>
  <separator name="general" >
   <i type="string" name="SYSTEM">Simulation for cell shape cell volume r</i>
   <i type="logical" name="LCOMPAT"> F  </i>
  </separator>
  <separator name="electronic" >
   <i type="string" name="PREC">high</i>
   <i name="ENMAX">    500.00000000</i>
   <i name="ENAUG">    644.87300000</i>
   <i name="EDIFF">      0.00001000</i>
   <i type="int" name="IALGO">    38</i>
   <i type="int" name="IWAVPR">    10</i>
   <i type="int" name="NBANDS">   160</i>
   <i name="NELECT">    234.00000000</i>
   <i type="int" name="TURBO">     0</i>
   <i type="int" name="IRESTART">     0</i>
   <i type="int" name="NREBOOT">     0</i>
   <i type="int" name="NMIN">     0</i>
   <i name="EREF">      0.00000000</i>
   <separator name="electronic smearing" >
    <i type="int" name="ISMEAR">     0</i>
    <i name="SIGMA">      0.01000000</i>
    <i name="KSPACING">      0.50000000</i>
    <i type="logical" name="KGAMMA"> T  </i>
   </separator>
   <separator name="electronic projectors" >
    <i type="logical" name="LREAL"> T  </i>
    <v name="ROPT">     -0.00040000     -0.00040000     -0.00040000     -0.00040000</v>
    <i type="int" name="LMAXPAW">  -100</i>
    <i type="int" name="LMAXMIX">     2</i>
    <i type="logical" name="NLSPLINE"> F  </i>
   </separator>
   <separator name="electronic startup" >
    <i type="int" name="ISTART">     1</i>
    <i type="int" name="ICHARG">    11</i>
    <i type="int" name="INIWAV">     1</i>
   </separator>
   <separator name="electronic spin" >
    <i type="int" name="ISPIN">     1</i>
    <i type="logical" name="LNONCOLLINEAR"> F  </i>
    <v name="MAGMOM">      1.00000000      1.00000000      1.00000000      1.00000000      1.00000000      1.00000000      1.00000000      1.00000000      1.00000000      1.00000000      1.00000000      1.00000000      1.00000000      1.00000000      1.00000000      1.00000000      1.00000000      1.00000000      1.00000000      1.00000000
      1.00000000      1.00000000      1.00000000      1.00000000      1.00000000      1.00000000      1.00000000      1.00000000      1.00000000      1.00000000      1.00000000      1.00000000      1.00000000      1.00000000      1.00000000      1.00000000      1.00000000      1.00000000      1.00000000      1.00000000
      1.00000000      1.00000000      1.00000000      1.00000000      1.00000000      1.00000000      1.00000000      1.00000000      1.00000000      1.00000000      1.00000000      1.00000000      1.00000000      1.00000000      1.00000000      1.00000000      1.00000000      1.00000000      1.00000000      1.00000000
</v>
    <i name="NUPDOWN">     -1.00000000</i>
    <i type="logical" name="LSORBIT"> F  </i>
    <v name="SAXIS">      0.00000000      0.00000000      1.00000000</v>
    <i type="logical" name="LSPIRAL"> F  </i>
    <v name="QSPIRAL">      0.00000000      0.00000000      0.00000000</v>
    <i type="logical" name="LZEROZ"> F  </i>
   </separator>
   <separator name="electronic exchange-correlation" >
    <i type="logical" name="LASPH"> F  </i>
    <i type="logical" name="LMETAGGA"> F  </i>
   </separator>
   <separator name="electronic convergence" >
    <i type="int" name="NELM">   200</i>
    <i type="int" name="NELMDL">     0</i>
    <i type="int" name="NELMIN">     2</i>
    <i name="ENINI">    500.00000000</i>
    <separator name="electronic convergence detail" >
     <i type="logical" name="LDIAG"> T  </i>
     <i type="logical" name="LSUBROT"> F  </i>
     <i name="WEIMIN">      0.00000000</i>
     <i name="EBREAK">      0.00000002</i>
     <i name="DEPER">      0.30000000</i>
     <i type="int" name="NRMM">     4</i>
     <i name="TIME">      0.40000000</i>
    </separator>
   </separator>
   <separator name="electronic mixer" >
    <i name="AMIX">      0.40000000</i>
    <i name="BMIX">      1.00000000</i>
    <i name="AMIN">      0.10000000</i>
    <i name="AMIX_MAG">      1.60000000</i>
    <i name="BMIX_MAG">      1.00000000</i>
    <separator name="electronic mixer details" >
     <i type="int" name="IMIX">     4</i>
     <i type="logical" name="MIXFIRST"> F  </i>
     <i type="int" name="MAXMIX">   -45</i>
     <i name="WC">    100.00000000</i>
     <i type="int" name="INIMIX">     1</i>
     <i type="int" name="MIXPRE">     1</i>
     <i type="int" name="MREMOVE">     5</i>
    </separator>
   </separator>
   <separator name="electronic dipolcorrection" >
    <i type="logical" name="LDIPOL"> F  </i>
    <i type="logical" name="LMONO"> F  </i>
    <i type="int" name="IDIPOL">     0</i>
    <i name="EPSILON">      1.00000000</i>
    <v name="DIPOL">   -100.00000000   -100.00000000   -100.00000000</v>
    <i name="EFIELD">      0.00000000</i>
   </separator>
  </separator>
  <separator name="grids" >
   <i type="int" name="NGX">   160</i>
   <i type="int" name="NGY">   160</i>
   <i type="int" name="NGZ">   150</i>
   <i type="int" name="NGXF">   240</i>
   <i type="int" name="NGYF">   240</i>
   <i type="int" name="NGZF">   224</i>
   <i type="logical" name="ADDGRID"> F  </i>
  </separator>
  <separator name="ionic" >
   <i type="int" name="NSW">     0</i>
   <i type="int" name="IBRION">    -1</i>
   <i type="int" name="MDALGO">     0</i>
   <i type="int" name="ISIF">     2</i>
   <i name="PSTRESS">      0.00000000</i>
   <i name="EDIFFG">     -0.01000000</i>
   <i type="int" name="NFREE">     0</i>
   <i name="POTIM">      0.30000000</i>
   <i name="SMASS">     -3.00000000</i>
   <i name="SCALEE">      1.00000000</i>
  </separator>
  <separator name="ionic md" >
   <i name="TEBEG">      0.00010000</i>
   <i name="TEEND">      0.00010000</i>
   <i type="int" name="NBLOCK">     1</i>
   <i type="int" name="KBLOCK">     1</i>
   <i type="int" name="NPACO">   256</i>
   <i name="APACO">     16.00000000</i>
  </separator>
  <separator name="symmetry" >
   <i type="int" name="ISYM">     2</i>
   <i name="SYMPREC">      0.00001000</i>
  </separator>
  <separator name="dos" >
   <i type="int" name="LORBIT">     0</i>
   <v name="RWIGS">     -1.00000000     -1.00000000     -1.00000000     -1.00000000</v>
   <i type="int" name="NEDOS">   301</i>
   <i name="EMIN">     10.00000000</i>
   <i name="EMAX">    -10.00000000</i>
   <i name="EFERMI">      0.00000000</i>
  </separator>
  <separator name="writing" >
   <i type="int" name="NWRITE">     0</i>
   <i type="logical" name="LWAVE"> F  </i>
   <i type="logical" name="LDOWNSAMPLE"> F  </i>
   <i type="logical" name="LCHARG"> F  </i>
   <i type="logical" name="LPARD"> F  </i>
   <i type="logical" name="LVTOT"> F  </i>
   <i type="logical" name="LVHAR"> F  </i>
   <i type="logical" name="LELF"> F  </i>
   <i type="logical" name="LOPTICS"> F  </i>
   <v name="STM">      0.00000000      0.00000000      0.00000000      0.00000000      0.00000000      0.00000000      0.00000000</v>
  </separator>
  <separator name="performance" >
   <i type="int" name="NPAR">    16</i>
   <i type="int" name="NSIM">     4</i>
   <i type="int" name="NBLK">    -1</i>
   <i type="logical" name="LPLANE"> T  </i>
   <i type="logical" name="LSCALAPACK"> T  </i>
   <i type="logical" name="LSCAAWARE"> F  </i>
   <i type="logical" name="LSCALU"> F  </i>
   <i type="logical" name="LASYNC"> F  </i>
   <i type="logical" name="LORBITALREAL"> F  </i>
  </separator>
  <separator name="miscellaneous" >
   <i type="int" name="IDIOT">     3</i>
   <i type="int" name="ISPECIAL">     0</i>
   <i type="logical" name="LMUSIC"> F  </i>
   <v name="POMASS">     16.00000000     14.00100000     12.01100000      1.00000000</v>
   <v name="DARWINR">      0.00000000      0.00000000      0.00000000      0.00000000</v>
   <v name="DARWINV">      1.00000000      1.00000000      1.00000000      1.00000000</v>
   <i type="logical" name="LCORR"> T  </i>
  </separator>
  <i type="logical" name="GGA_COMPAT"> T  </i>
  <i type="logical" name="LBERRY"> F  </i>
  <i type="int" name="ICORELEVEL">     0</i>
  <i type="logical" name="LDAU"> F  </i>
  <i type="int" name="I_CONSTRAINED_M">     0</i>
  <separator name="electronic exchange-correlation" >
   <i type="string" name="GGA">PE</i>
   <i type="int" name="VOSKOWN">     0</i>
   <i type="logical" name="LHFCALC"> F  </i>
   <i type="string" name="PRECFOCK"></i>
   <i type="logical" name="LSYMGRAD"> F  </i>
   <i type="logical" name="LHFONE"> F  </i>
   <i type="logical" name="LRHFCALC"> F  </i>
   <i type="logical" name="LTHOMAS"> F  </i>
   <i type="logical" name="LMODELHF"> F  </i>
   <i name="ENCUT4O">     -1.00000000</i>
   <i type="int" name="EXXOEP">     0</i>
   <i type="int" name="FOURORBIT">     0</i>
   <i name="AEXX">      0.00000000</i>
   <i name="HFALPHA">      0.00000000</i>
   <i name="MCALPHA">      0.00000000</i>
   <i name="ALDAX">      1.00000000</i>
   <i name="AGGAX">      1.00000000</i>
   <i name="ALDAC">      1.00000000</i>
   <i name="AGGAC">      1.00000000</i>
   <i type="int" name="NKREDX">     1</i>
   <i type="int" name="NKREDY">     1</i>
   <i type="int" name="NKREDZ">     1</i>
   <i type="logical" name="SHIFTRED"> F  </i>
   <i type="logical" name="ODDONLY"> F  </i>
   <i type="logical" name="EVENONLY"> F  </i>
   <i type="int" name="LMAXFOCK">     0</i>
   <i type="int" name="NMAXFOCKAE">     0</i>
   <i type="logical" name="LFOCKAEDFT"> F  </i>
   <i name="HFSCREEN">      0.00000000</i>
   <i name="HFSCREENC">      0.00000000</i>
   <i type="int" name="NBANDSGWLOW">     0</i>
  </separator>
  <separator name="vdW DFT" >
   <i type="logical" name="LUSE_VDW"> F  </i>
   <i name="Zab_VDW">     -0.84910000</i>
   <i name="PARAM1">      0.12340000</i>
   <i name="PARAM2">      1.00000000</i>
   <i name="PARAM3">      0.00000000</i>
  </separator>
  <separator name="model GW" >
   <i type="int" name="MODEL_GW">     0</i>
   <i name="MODEL_EPS0">     79.48243043</i>
   <i name="MODEL_ALPHA">      1.00000000</i>
  </separator>
  <separator name="linear response parameters" >
   <i type="logical" name="LEPSILON"> F  </i>
   <i type="logical" name="LRPA"> F  </i>
   <i type="logical" name="LNABLA"> F  </i>
   <i type="logical" name="LVEL"> F  </i>
   <i type="int" name="KINTER">     0</i>
   <i name="CSHIFT">      0.10000000</i>
   <i name="OMEGAMAX">     -1.00000000</i>
   <i name="DEG_THRESHOLD">      0.00200000</i>
   <i name="RTIME">     -0.10000000</i>
   <i name="WPLASMAI">      0.00000000</i>
   <v name="DFIELD">      0.00000000      0.00000000      0.00000000</v>
   <v name="WPLASMA">      0.00000000      0.00000000      0.00000000      0.00000000      0.00000000      0.00000000      0.00000000      0.00000000      0.00000000</v>
  </separator>
  <separator name="orbital magnetization" >
   <i type="logical" name="NUCIND"> F  </i>
   <v name="MAGPOS">      0.00000000      0.00000000      0.00000000</v>
   <i type="logical" name="LNICSALL"> T  </i>
   <i type="logical" name="ORBITALMAG"> F  </i>
   <i type="logical" name="LMAGBLOCH"> F  </i>
   <i type="logical" name="LCHIMAG"> F  </i>
   <i type="logical" name="LGAUGE"> T  </i>
   <i type="int" name="MAGATOM">     0</i>
   <v name="MAGDIPOL">      0.00000000      0.00000000      0.00000000</v>
   <v name="AVECCONST">      0.00000000      0.00000000      0.00000000</v>
  </separator>
  <separator name="response functions" >
   <i type="logical" name="LADDER"> F  </i>
   <i type="logical" name="LRPAFORCE"> F  </i>
   <i type="logical" name="LFXC"> F  </i>
   <i type="logical" name="LHARTREE"> T  </i>
   <i type="int" name="IBSE">     0</i>
   <v type="int" name="KPOINT">    -1     0     0     0</v>
   <i type="logical" name="LTCTE"> F  </i>
   <i type="logical" name="LTETE"> F  </i>
   <i type="logical" name="LTRIPLET"> F  </i>
   <i type="logical" name="LFXCEPS"> F  </i>
   <i type="logical" name="LFXHEG"> F  </i>
   <i type="int" name="NATURALO">     2</i>
   <i type="logical" name="L2ORDER"> F  </i>
   <i type="logical" name="LMP2LT"> F  </i>
   <i type="logical" name="LUSEW"> F  </i>
   <i name="ENCUTGW">     -2.00000000</i>
   <i name="ENCUTGWSOFT">     -2.00000000</i>
   <i name="ENCUTLF">     -1.00000000</i>
   <i type="int" name="LMAXMP2">    -1</i>
   <i name="SCISSOR">      0.00000000</i>
   <i type="int" name="NOMEGA">     0</i>
   <i type="int" name="NOMEGAR">     0</i>
   <i type="int" name="NBANDSGW">    -1</i>
   <i type="int" name="NBANDSO">    -1</i>
   <i type="int" name="NBANDSV">    -1</i>
   <i type="int" name="NELM">   200</i>
   <i type="int" name="NELMHF">     1</i>
   <i type="int" name="DIM">     3</i>
   <i type="int" name="ANTIRES">     0</i>
   <i name="OMEGAMAX">    -30.00000000</i>
   <i name="OMEGAMIN">    -30.00000000</i>
   <i name="OMEGATL">   -200.00000000</i>
   <i type="int" name="OMEGAGRID">   140</i>
   <i name="CSHIFT">     -0.10000000</i>
   <i type="logical" name="SELFENERGY"> F  </i>
   <i type="logical" name="LSPECTRAL"> F  </i>
   <i type="logical" name="LSPECTRALGW"> F  </i>
   <i type="logical" name="LSINGLES"> F  </i>
   <i type="logical" name="LFERMIGW"> F  </i>
   <i type="logical" name="ODDONLYGW"> F  </i>
   <i type="logical" name="EVENONLYGW"> F  </i>
   <i type="int" name="NKREDLFX">     1</i>
   <i type="int" name="NKREDLFY">     1</i>
   <i type="int" name="NKREDLFZ">     1</i>
   <i type="int" name="MAXMEM">  2800</i>
   <i type="int" name="TELESCOPE">     0</i>
   <i type="int" name="TAUPAR">     1</i>
   <i type="int" name="OMEGAPAR">    -1</i>
   <i name="LAMBDA">      1.00000000</i>
  </separator>
  <separator name="External order field" >
   <i name="OFIELD_KAPPA">      0.00000000</i>
   <v name="OFIELD_K">      0.00000000      0.00000000      0.00000000</v>
   <i name="OFIELD_Q6_NEAR">      0.00000000</i>
   <i name="OFIELD_Q6_FAR">      0.00000000</i>
   <i name="OFIELD_A">      0.00000000</i>
  </separator>
  <separator name="solvation model" >
   <i type="logical" name="LSOL"> F  </i>
  </separator>
 </parameters>
 <atominfo>
  <atoms>      60 </atoms>
  <types>       4 </types>
  <array name="atoms" >
   <dimension dim="1">ion</dimension>
   <field type="string">element</field>
   <field type="int">atomtype</field>
   <set>
    <rc><c>O </c><c>   1</c></rc>
    <rc><c>O </c><c>   1</c></rc>
    <rc><c>O </c><c>   1</c></rc>
    <rc><c>O </c><c>   1</c></rc>
    <rc><c>O </c><c>   1</c></rc>
    <rc><c>O </c><c>   1</c></rc>
    <rc><c>N </c><c>   2</c></rc>
    <rc><c>N </c><c>   2</c></rc>
    <rc><c>N </c><c>   2</c></rc>
    <rc><c>N </c><c>   2</c></rc>
    <rc><c>N </c><c>   2</c></rc>
    <rc><c>N </c><c>   2</c></rc>
    <rc><c>N </c><c>   2</c></rc>
    <rc><c>N </c><c>   2</c></rc>
    <rc><c>N </c><c>   2</c></rc>
    <rc><c>N </c><c>   2</c></rc>
    <rc><c>N </c><c>   2</c></rc>
    <rc><c>N </c><c>   2</c></rc>
    <rc><c>N </c><c>   2</c></rc>
    <rc><c>N </c><c>   2</c></rc>
    <rc><c>N </c><c>   2</c></rc>
    <rc><c>N </c><c>   2</c></rc>
    <rc><c>N </c><c>   2</c></rc>
    <rc><c>N </c><c>   2</c></rc>
    <rc><c>C </c><c>   3</c></rc>
    <rc><c>C </c><c>   3</c></rc>
    <rc><c>C </c><c>   3</c></rc>
    <rc><c>C </c><c>   3</c></rc>
    <rc><c>C </c><c>   3</c></rc>
    <rc><c>C </c><c>   3</c></rc>
    <rc><c>C </c><c>   3</c></rc>
    <rc><c>C </c><c>   3</c></rc>
    <rc><c>C </c><c>   3</c></rc>
    <rc><c>C </c><c>   3</c></rc>
    <rc><c>C </c><c>   3</c></rc>
    <rc><c>C </c><c>   3</c></rc>
    <rc><c>C </c><c>   3</c></rc>
    <rc><c>C </c><c>   3</c></rc>
    <rc><c>C </c><c>   3</c></rc>
    <rc><c>C </c><c>   3</c></rc>
    <rc><c>C </c><c>   3</c></rc>
    <rc><c>C </c><c>   3</c></rc>
    <rc><c>C </c><c>   3</c></rc>
    <rc><c>C </c><c>   3</c></rc>
    <rc><c>C </c><c>   3</c></rc>
    <rc><c>C </c><c>   3</c></rc>
    <rc><c>C </c><c>   3</c></rc>
    <rc><c>C </c><c>   3</c></rc>
    <rc><c>H </c><c>   4</c></rc>
    <rc><c>H </c><c>   4</c></rc>
    <rc><c>H </c><c>   4</c></rc>
    <rc><c>H </c><c>   4</c></rc>
    <rc><c>H </c><c>   4</c></rc>
    <rc><c>H </c><c>   4</c></rc>
    <rc><c>H </c><c>   4</c></rc>
    <rc><c>H </c><c>   4</c></rc>
    <rc><c>H </c><c>   4</c></rc>
    <rc><c>H </c><c>   4</c></rc>
    <rc><c>H </c><c>   4</c></rc>
    <rc><c>H </c><c>   4</c></rc>
   </set>
  </array>
  <array name="atomtypes" >
   <dimension dim="1">type</dimension>
   <field type="int">atomspertype</field>
   <field type="string">element</field>
   <field>mass</field>
   <field>valence</field>
   <field type="string">pseudopotential</field>
   <set>
    <rc><c>   6</c><c>O </c><c>     16.00000000</c><c>      6.00000000</c><c>  PAW_PBE O 08Apr2002                   </c></rc>
    <rc><c>  18</c><c>N </c><c>     14.00100000</c><c>      5.00000000</c><c>  PAW_PBE N 08Apr2002                   </c></rc>
    <rc><c>  24</c><c>C </c><c>     12.01100000</c><c>      4.00000000</c><c>  PAW_PBE C 08Apr2002                   </c></rc>
    <rc><c>  12</c><c>H </c><c>      1.00000000</c><c>      1.00000000</c><c>  PAW_PBE H 15Jun2001                   </c></rc>
   </set>
  </array>
 </atominfo>
 <structure name="initialpos" >
  <crystal>
   <varray name="basis" >
    <v>      21.44931749      -0.05643362       0.00000000 </v>
    <v>     -10.77340020      18.55630764       0.00000000 </v>
    <v>      -0.00000000       0.00000000      20.00000000 </v>
   </varray>
   <i name="volume">   7948.24304266 </i>
   <varray name="rec_basis" >
    <v>       0.04669285       0.02710888       0.00000000 </v>
    <v>       0.00014200       0.05397248       0.00000000 </v>
    <v>       0.00000000       0.00000000       0.05000000 </v>
   </varray>
  </crystal>
  <varray name="positions" >
   <v>       0.48091962       0.18054822       0.54940745 </v>
   <v>       0.68892624       0.51660283       0.54899844 </v>
   <v>       0.81693063       0.30946310       0.55014932 </v>
   <v>       0.51173212       0.82428728       0.45740176 </v>
   <v>       0.30335768       0.48734465       0.45617650 </v>
   <v>       0.17526610       0.69372092       0.45089493 </v>
   <v>       0.72010398       0.40481213       0.55005127 </v>
   <v>       0.67400648       0.27829657       0.55068965 </v>
   <v>       0.59343144       0.32376284       0.55074815 </v>
   <v>       0.27279539       0.59915388       0.45496586 </v>
   <v>       0.31870597       0.72562278       0.45426206 </v>
   <v>       0.39946352       0.68039935       0.45582975 </v>
   <v>       0.45786796       0.03944246       0.50689897 </v>
   <v>       0.42495157       0.85914782       0.46984918 </v>
   <v>       0.95787195       0.42628369       0.50728420 </v>
   <v>       0.13933547       0.57225576       0.46869651 </v>
   <v>       0.57167959       0.53902778       0.50683621 </v>
   <v>       0.42549027       0.57347808       0.47082078 </v>
   <v>       0.53398366       0.96454331       0.49956284 </v>
   <v>       0.56706076       0.14490293       0.53636979 </v>
   <v>       0.03527471       0.57769551       0.49807919 </v>
   <v>       0.85359188       0.43158763       0.53602535 </v>
   <v>       0.42014034       0.46377916       0.49942375 </v>
   <v>       0.56667257       0.42970630       0.53585713 </v>
   <v>       0.72823270       0.34672010       0.55024573 </v>
   <v>       0.60753456       0.26981234       0.55051177 </v>
   <v>       0.80486484       0.35924579       0.54611651 </v>
   <v>       0.54307369       0.19302740       0.54602437 </v>
   <v>       0.63917512       0.45424758       0.54558575 </v>
   <v>       0.26454876       0.65717795       0.45428682 </v>
   <v>       0.38523696       0.73429306       0.45554835 </v>
   <v>       0.18775486       0.64438566       0.45709903 </v>
   <v>       0.44938024       0.81129076       0.46042556 </v>
   <v>       0.35329299       0.54954097       0.46033000 </v>
   <v>       0.42541415       0.97013443       0.49006500 </v>
   <v>       0.46320498       0.93216006       0.48620479 </v>
   <v>       0.02716062       0.46231254       0.49015104 </v>
   <v>       0.06636797       0.53829264       0.48524258 </v>
   <v>       0.53552325       0.57196428       0.49032553 </v>
   <v>       0.45945809       0.53461340       0.48654255 </v>
   <v>       0.65175301       0.39034521       0.55013522 </v>
   <v>       0.34116229       0.61374845       0.45578218 </v>
   <v>       0.52865385       0.07183752       0.52019394 </v>
   <v>       0.56641209       0.03383070       0.51644215 </v>
   <v>       0.92667430       0.46564754       0.51982117 </v>
   <v>       0.96598307       0.54166852       0.51524598 </v>
   <v>       0.53241649       0.46824147       0.51987852 </v>
   <v>       0.45633783       0.43085555       0.51601038 </v>
   <v>       0.36752400       0.94342405       0.47917260 </v>
   <v>       0.36989822       0.83504364       0.46686139 </v>
   <v>       0.05284437       0.43028546       0.47990249 </v>
   <v>       0.16284355       0.54091190       0.46745657 </v>
   <v>       0.56749956       0.62985199       0.47961338 </v>
   <v>       0.45722002       0.62852648       0.46860417 </v>
   <v>       0.62427308       0.06051937       0.52747088 </v>
   <v>       0.62214504       0.16890150       0.53885924 </v>
   <v>       0.94041460       0.57373042       0.52587498 </v>
   <v>       0.83026442       0.46307451       0.53790419 </v>
   <v>       0.42437180       0.37296302       0.52672513 </v>
   <v>       0.53527573       0.37464624       0.53843627 </v>
  </varray>
 </structure>
 <calculation>
  <scstep>
   <time name="dav">  192.60  194.47</time>
   <time name="total">  192.75  194.63</time>
   <energy>
    <i name="alphaZ">     30.88170587 </i>
    <i name="ewald">  26134.90112012 </i>
    <i name="hartreedc"> -35204.58433671 </i>
    <i name="XCdc">    900.34991774 </i>
    <i name="pawpsdc">  22977.78340566 </i>
    <i name="pawaedc"> -23031.62256980 </i>
    <i name="eentropy">     -0.00000000 </i>
    <i name="bandstr">  -3290.95059135 </i>
    <i name="atom">  11037.16517653 </i>
    <i name="e_fr_energy">   -446.07617193 </i>
    <i name="e_wo_entrp">   -446.07617193 </i>
    <i name="e_0_energy">   -446.07617193 </i>
   </energy>
  </scstep>
  <scstep>
   <time name="dav">  219.36  221.44</time>
   <time name="total">  219.38  221.45</time>
   <energy>
    <i name="e_fr_energy">   -446.97114325 </i>
    <i name="e_wo_entrp">   -446.97114325 </i>
    <i name="e_0_energy">   -446.97114325 </i>
   </energy>
  </scstep>
  <scstep>
   <time name="dav">  242.84  245.15</time>
   <time name="total">  242.86  245.17</time>
   <energy>
    <i name="e_fr_energy">   -446.99489519 </i>
    <i name="e_wo_entrp">   -446.99489519 </i>
    <i name="e_0_energy">   -446.99489519 </i>
   </energy>
  </scstep>
  <scstep>
   <time name="dav">  217.38  219.47</time>
   <time name="total">  217.40  219.48</time>
   <energy>
    <i name="e_fr_energy">   -446.99524908 </i>
    <i name="e_wo_entrp">   -446.99524908 </i>
    <i name="e_0_energy">   -446.99524908 </i>
   </energy>
  </scstep>
  <scstep>
   <time name="dav">  202.41  204.36</time>
   <time name="total">  202.43  204.37</time>
   <energy>
    <i name="e_fr_energy">   -446.99526429 </i>
    <i name="e_wo_entrp">   -446.99526429 </i>
    <i name="e_0_energy">   -446.99526429 </i>
   </energy>
  </scstep>
  <scstep>
   <time name="dav">  173.64  175.28</time>
   <time name="total">  173.65  175.29</time>
   <energy>
    <i name="alphaZ">     30.88170587 </i>
    <i name="ewald">  26134.90112012 </i>
    <i name="hartreedc"> -35204.58433671 </i>
    <i name="XCdc">    900.34991774 </i>
    <i name="pawpsdc">  22977.78340566 </i>
    <i name="pawaedc"> -23031.62256980 </i>
    <i name="eentropy">     -0.00000000 </i>
    <i name="bandstr">  -3291.86968438 </i>
    <i name="atom">  11037.16517653 </i>
    <i name="e_fr_energy">   -446.99526496 </i>
    <i name="e_wo_entrp">   -446.99526496 </i>
    <i name="e_0_energy">   -446.99526496 </i>
   </energy>
  </scstep>
  <structure>
   <crystal>
    <varray name="basis" >
     <v>      21.44931749      -0.05643362       0.00000000 </v>
     <v>     -10.77340020      18.55630764       0.00000000 </v>
     <v>      -0.00000000       0.00000000      20.00000000 </v>
    </varray>
    <i name="volume">   7948.24304266 </i>
    <varray name="rec_basis" >
     <v>       0.04669285       0.02710888       0.00000000 </v>
     <v>       0.00014200       0.05397248       0.00000000 </v>
     <v>       0.00000000       0.00000000       0.05000000 </v>
    </varray>
   </crystal>
   <varray name="positions" >
    <v>       0.48091962       0.18054822       0.54940745 </v>
    <v>       0.68892624       0.51660283       0.54899844 </v>
    <v>       0.81693063       0.30946310       0.55014932 </v>
    <v>       0.51173212       0.82428728       0.45740176 </v>
    <v>       0.30335768       0.48734465       0.45617650 </v>
    <v>       0.17526610       0.69372092       0.45089493 </v>
    <v>       0.72010398       0.40481213       0.55005127 </v>
    <v>       0.67400648       0.27829657       0.55068965 </v>
    <v>       0.59343144       0.32376284       0.55074815 </v>
    <v>       0.27279539       0.59915388       0.45496586 </v>
    <v>       0.31870597       0.72562278       0.45426206 </v>
    <v>       0.39946352       0.68039935       0.45582975 </v>
    <v>       0.45786796       0.03944246       0.50689897 </v>
    <v>       0.42495157       0.85914782       0.46984918 </v>
    <v>       0.95787195       0.42628369       0.50728420 </v>
    <v>       0.13933547       0.57225576       0.46869651 </v>
    <v>       0.57167959       0.53902778       0.50683621 </v>
    <v>       0.42549027       0.57347808       0.47082078 </v>
    <v>       0.53398366       0.96454331       0.49956284 </v>
    <v>       0.56706076       0.14490293       0.53636979 </v>
    <v>       0.03527471       0.57769551       0.49807919 </v>
    <v>       0.85359188       0.43158763       0.53602535 </v>
    <v>       0.42014034       0.46377916       0.49942375 </v>
    <v>       0.56667257       0.42970630       0.53585713 </v>
    <v>       0.72823270       0.34672010       0.55024573 </v>
    <v>       0.60753456       0.26981234       0.55051177 </v>
    <v>       0.80486484       0.35924579       0.54611651 </v>
    <v>       0.54307369       0.19302740       0.54602437 </v>
    <v>       0.63917512       0.45424758       0.54558575 </v>
    <v>       0.26454876       0.65717795       0.45428682 </v>
    <v>       0.38523696       0.73429306       0.45554835 </v>
    <v>       0.18775486       0.64438566       0.45709903 </v>
    <v>       0.44938024       0.81129076       0.46042556 </v>
    <v>       0.35329299       0.54954097       0.46033000 </v>
    <v>       0.42541415       0.97013443       0.49006500 </v>
    <v>       0.46320498       0.93216006       0.48620479 </v>
    <v>       0.02716062       0.46231254       0.49015104 </v>
    <v>       0.06636797       0.53829264       0.48524258 </v>
    <v>       0.53552325       0.57196428       0.49032553 </v>
    <v>       0.45945809       0.53461340       0.48654255 </v>
    <v>       0.65175301       0.39034521       0.55013522 </v>
    <v>       0.34116229       0.61374845       0.45578218 </v>
    <v>       0.52865385       0.07183752       0.52019394 </v>
    <v>       0.56641209       0.03383070       0.51644215 </v>
    <v>       0.92667430       0.46564754       0.51982117 </v>
    <v>       0.96598307       0.54166852       0.51524598 </v>
    <v>       0.53241649       0.46824147       0.51987852 </v>
    <v>       0.45633783       0.43085555       0.51601038 </v>
    <v>       0.36752400       0.94342405       0.47917260 </v>
    <v>       0.36989822       0.83504364       0.46686139 </v>
    <v>       0.05284437       0.43028546       0.47990249 </v>
    <v>       0.16284355       0.54091190       0.46745657 </v>
    <v>       0.56749956       0.62985199       0.47961338 </v>
    <v>       0.45722002       0.62852648       0.46860417 </v>
    <v>       0.62427308       0.06051937       0.52747088 </v>
    <v>       0.62214504       0.16890150       0.53885924 </v>
    <v>       0.94041460       0.57373042       0.52587498 </v>
    <v>       0.83026442       0.46307451       0.53790419 </v>
    <v>       0.42437180       0.37296302       0.52672513 </v>
    <v>       0.53527573       0.37464624       0.53843627 </v>
   </varray>
  </structure>
  <varray name="forces" >
   <v>      -0.00688481      -0.00366766      -0.00054463 </v>
   <v>       0.00291672       0.00675925      -0.00119614 </v>
   <v>       0.00354153      -0.00351337      -0.00418897 </v>
   <v>      -0.00169479       0.00246115       0.00152313 </v>
   <v>      -0.00336815      -0.00309683       0.00304653 </v>
   <v>       0.00269612      -0.00381608       0.00262217 </v>
   <v>      -0.00074448       0.00433271      -0.00707046 </v>
   <v>      -0.00142293      -0.00138376      -0.00077567 </v>
   <v>       0.00051098      -0.00273369      -0.00316568 </v>
   <v>       0.00304485      -0.00253306       0.00369111 </v>
   <v>      -0.00300593      -0.00169118       0.00174403 </v>
   <v>      -0.00183117      -0.00138552       0.00366702 </v>
   <v>      -0.00341835      -0.00358599      -0.00160588 </v>
   <v>      -0.00097305       0.00049295      -0.00003986 </v>
   <v>       0.00716040      -0.00104613      -0.00242967 </v>
   <v>      -0.00312493       0.00313224       0.00228002 </v>
   <v>      -0.00252794       0.00670934      -0.00138670 </v>
   <v>      -0.00325845       0.00626169       0.00086820 </v>
   <v>       0.00470097       0.00346720       0.00133319 </v>
   <v>      -0.00051254      -0.00232347       0.00048123 </v>
   <v>       0.00021537       0.00487952       0.00212754 </v>
   <v>       0.00835999       0.00013258      -0.00124732 </v>
   <v>       0.00192479      -0.00254707       0.00140087 </v>
   <v>      -0.00219823       0.00256450      -0.00352462 </v>
   <v>      -0.00018968      -0.00552564       0.00041577 </v>
   <v>      -0.00092022      -0.00318189      -0.00005765 </v>
   <v>       0.00038858       0.00340423      -0.00309904 </v>
   <v>       0.00354722       0.00779445       0.00042045 </v>
   <v>       0.00008840      -0.00321053      -0.00360082 </v>
   <v>       0.00068274       0.00564496      -0.00289922 </v>
   <v>       0.00050065       0.00295555      -0.00182375 </v>
   <v>      -0.00507824       0.00142944       0.00101898 </v>
   <v>       0.00668729      -0.00635105      -0.00024907 </v>
   <v>       0.00000307       0.00004455       0.00513933 </v>
   <v>      -0.00349590       0.00390171       0.00112429 </v>
   <v>       0.00043625       0.00337342       0.00093283 </v>
   <v>      -0.00630751      -0.00138384       0.00310043 </v>
   <v>       0.00362107      -0.00396567      -0.00029673 </v>
   <v>       0.00367033      -0.00150866       0.00299967 </v>
   <v>      -0.00176272      -0.00123237       0.00424989 </v>
   <v>       0.00206535      -0.00288920      -0.00227866 </v>
   <v>      -0.00086285       0.00078340      -0.00070119 </v>
   <v>       0.00028851      -0.00086493      -0.00003750 </v>
   <v>       0.00509387      -0.00154812      -0.00095802 </v>
   <v>      -0.00927046      -0.00071180       0.00243140 </v>
   <v>       0.00361731       0.00107386      -0.00340475 </v>
   <v>       0.00397520      -0.00397128      -0.00149010 </v>
   <v>      -0.00478362      -0.00015669      -0.00197201 </v>
   <v>      -0.00206184      -0.00111097      -0.00024117 </v>
   <v>      -0.00512058      -0.00202629       0.00041596 </v>
   <v>       0.00383318      -0.00310967      -0.00080578 </v>
   <v>       0.00417592      -0.00248482       0.00224577 </v>
   <v>      -0.00097000       0.00577740       0.00145510 </v>
   <v>      -0.00037509       0.00025697       0.00574922 </v>
   <v>       0.00055844       0.00099351       0.00000664 </v>
   <v>       0.00402407       0.00280207       0.00204912 </v>
   <v>      -0.00145278       0.00176577      -0.00205959 </v>
   <v>      -0.00356634       0.00266163       0.00199221 </v>
   <v>      -0.00065682      -0.00254353      -0.00427462 </v>
   <v>      -0.00048870      -0.00475526      -0.00310682 </v>
  </varray>
  <varray name="stress" >
   <v>       0.00467205      -0.00018976       0.01397687 </v>
   <v>      -0.00018975       0.00637454      -0.00145879 </v>
   <v>       0.01397687      -0.00145879      -0.24627503 </v>
  </varray>
  <energy>
   <i name="e_fr_energy">   -448.10992779 </i>
   <i name="e_wo_entrp">   -448.10992779 </i>
   <i name="e_0_energy">     -0.00000000 </i>
  </energy>
  <time name="totalsc"> 1414.82 1428.68</time>
  <eigenvalues>
   <array>
    <dimension dim="1">band</dimension>
    <dimension dim="2">kpoint</dimension>
    <dimension dim="3">spin</dimension>
    <field>eigene</field>
    <field>occ</field>
    <set>
     <set comment="spin 1">
      <set comment="kpoint 1">
       <r>  -26.9202    1.0000 </r>
       <r>  -26.9127    1.0000 </r>
       <r>  -26.4573    1.0000 </r>
       <r>  -26.4540    1.0000 </r>
       <r>  -26.4279    1.0000 </r>
       <r>  -26.4246    1.0000 </r>
       <r>  -26.0742    1.0000 </r>
       <r>  -26.0461    1.0000 </r>
       <r>  -25.2031    1.0000 </r>
       <r>  -25.2023    1.0000 </r>
       <r>  -25.1950    1.0000 </r>
       <r>  -24.3385    1.0000 </r>
       <r>  -24.3359    1.0000 </r>
       <r>  -24.2576    1.0000 </r>
       <r>  -23.7724    1.0000 </r>
       <r>  -23.7708    1.0000 </r>
       <r>  -23.4144    1.0000 </r>
       <r>  -23.4101    1.0000 </r>
       <r>  -23.4095    1.0000 </r>
       <r>  -23.0789    1.0000 </r>
       <r>  -23.0772    1.0000 </r>
       <r>  -22.6792    1.0000 </r>
       <r>  -22.6367    1.0000 </r>
       <r>  -22.6347    1.0000 </r>
       <r>  -19.7326    1.0000 </r>
       <r>  -19.7311    1.0000 </r>
       <r>  -19.5942    1.0000 </r>
       <r>  -18.8440    1.0000 </r>
       <r>  -18.8414    1.0000 </r>
       <r>  -18.0596    1.0000 </r>
       <r>  -18.0166    1.0000 </r>
       <r>  -18.0132    1.0000 </r>
       <r>  -17.1078    1.0000 </r>
       <r>  -17.1061    1.0000 </r>
       <r>  -16.9627    1.0000 </r>
       <r>  -16.6466    1.0000 </r>
       <r>  -16.6453    1.0000 </r>
       <r>  -16.3239    1.0000 </r>
       <r>  -15.3626    1.0000 </r>
       <r>  -15.3608    1.0000 </r>
       <r>  -15.2194    1.0000 </r>
       <r>  -14.9070    1.0000 </r>
       <r>  -14.7612    1.0000 </r>
       <r>  -14.6307    1.0000 </r>
       <r>  -14.2732    1.0000 </r>
       <r>  -14.2705    1.0000 </r>
       <r>  -14.2303    1.0000 </r>
       <r>  -14.2294    1.0000 </r>
       <r>  -13.9127    1.0000 </r>
       <r>  -13.7279    1.0000 </r>
       <r>  -13.7204    1.0000 </r>
       <r>  -13.1444    1.0000 </r>
       <r>  -12.9578    1.0000 </r>
       <r>  -12.5742    1.0000 </r>
       <r>  -12.5687    1.0000 </r>
       <r>  -12.5583    1.0000 </r>
       <r>  -12.4869    1.0000 </r>
       <r>  -12.4617    1.0000 </r>
       <r>  -12.1264    1.0000 </r>
       <r>  -12.1234    1.0000 </r>
       <r>  -11.9621    1.0000 </r>
       <r>  -11.9577    1.0000 </r>
       <r>  -11.5701    1.0000 </r>
       <r>  -11.5659    1.0000 </r>
       <r>  -11.3740    1.0000 </r>
       <r>  -11.1807    1.0000 </r>
       <r>  -11.1779    1.0000 </r>
       <r>  -11.1731    1.0000 </r>
       <r>  -11.1560    1.0000 </r>
       <r>  -11.1546    1.0000 </r>
       <r>  -10.7678    1.0000 </r>
       <r>  -10.7652    1.0000 </r>
       <r>  -10.7641    1.0000 </r>
       <r>  -10.5264    1.0000 </r>
       <r>  -10.4893    1.0000 </r>
       <r>  -10.4866    1.0000 </r>
       <r>  -10.3376    1.0000 </r>
       <r>  -10.2880    1.0000 </r>
       <r>  -10.1599    1.0000 </r>
       <r>  -10.1557    1.0000 </r>
       <r>  -10.1389    1.0000 </r>
       <r>  -10.1345    1.0000 </r>
       <r>   -9.9054    1.0000 </r>
       <r>   -9.9014    1.0000 </r>
       <r>   -9.7718    1.0000 </r>
       <r>   -9.2940    1.0000 </r>
       <r>   -9.2925    1.0000 </r>
       <r>   -8.7494    1.0000 </r>
       <r>   -8.7477    1.0000 </r>
       <r>   -8.7471    1.0000 </r>
       <r>   -8.4912    1.0000 </r>
       <r>   -8.4882    1.0000 </r>
       <r>   -8.0952    1.0000 </r>
       <r>   -8.0873    1.0000 </r>
       <r>   -8.0866    1.0000 </r>
       <r>   -7.5163    1.0000 </r>
       <r>   -7.5156    1.0000 </r>
       <r>   -7.4144    1.0000 </r>
       <r>   -7.3879    1.0000 </r>
       <r>   -7.3868    1.0000 </r>
       <r>   -7.3531    1.0000 </r>
       <r>   -7.3335    1.0000 </r>
       <r>   -7.3311    1.0000 </r>
       <r>   -7.1461    1.0000 </r>
       <r>   -7.1424    1.0000 </r>
       <r>   -6.7397    1.0000 </r>
       <r>   -6.5667    1.0000 </r>
       <r>   -6.5647    1.0000 </r>
       <r>   -6.2882    1.0000 </r>
       <r>   -6.0515    1.0000 </r>
       <r>   -6.0464    1.0000 </r>
       <r>   -5.7201    1.0000 </r>
       <r>   -5.7149    1.0000 </r>
       <r>   -5.7046    1.0000 </r>
       <r>   -5.6389    1.0000 </r>
       <r>   -5.5340    1.0000 </r>
       <r>   -5.5270    1.0000 </r>
       <r>   -3.9076    0.0000 </r>
       <r>   -3.9069    0.0000 </r>
       <r>   -3.6637    0.0000 </r>
       <r>   -3.6617    0.0000 </r>
       <r>   -2.6642    0.0000 </r>
       <r>   -2.4613    0.0000 </r>
       <r>   -2.4571    0.0000 </r>
       <r>   -2.2680    0.0000 </r>
       <r>   -1.7086    0.0000 </r>
       <r>   -1.5582    0.0000 </r>
       <r>   -1.5546    0.0000 </r>
       <r>   -0.6991    0.0000 </r>
       <r>   -0.5746    0.0000 </r>
       <r>   -0.4425    0.0000 </r>
       <r>   -0.0866    0.0000 </r>
       <r>   -0.0821    0.0000 </r>
       <r>    0.0823    0.0000 </r>
       <r>    0.0899    0.0000 </r>
       <r>    0.1510    0.0000 </r>
       <r>    0.1553    0.0000 </r>
       <r>    0.3032    0.0000 </r>
       <r>    0.4268    0.0000 </r>
       <r>    0.4781    0.0000 </r>
       <r>    0.5121    0.0000 </r>
       <r>    0.5225    0.0000 </r>
       <r>    0.6248    0.0000 </r>
       <r>    0.6622    0.0000 </r>
       <r>    0.7590    0.0000 </r>
       <r>    0.7598    0.0000 </r>
       <r>    0.8575    0.0000 </r>
       <r>    0.8605    0.0000 </r>
       <r>    0.8841    0.0000 </r>
       <r>    0.8868    0.0000 </r>
       <r>    0.8972    0.0000 </r>
       <r>    0.9775    0.0000 </r>
       <r>    0.9793    0.0000 </r>
       <r>    1.0073    0.0000 </r>
       <r>    1.1043    0.0000 </r>
       <r>    1.1070    0.0000 </r>
       <r>    1.1097    0.0000 </r>
       <r>    1.1143    0.0000 </r>
       <r>    1.1174    0.0000 </r>
       <r>    1.1535    0.0000 </r>
      </set>
      <set comment="kpoint 2">
       <r>  -26.9202    1.0000 </r>
       <r>  -26.9127    1.0000 </r>
       <r>  -26.4573    1.0000 </r>
       <r>  -26.4539    1.0000 </r>
       <r>  -26.4280    1.0000 </r>
       <r>  -26.4246    1.0000 </r>
       <r>  -26.0742    1.0000 </r>
       <r>  -26.0462    1.0000 </r>
       <r>  -25.2031    1.0000 </r>
       <r>  -25.2023    1.0000 </r>
       <r>  -25.1950    1.0000 </r>
       <r>  -24.3385    1.0000 </r>
       <r>  -24.3358    1.0000 </r>
       <r>  -24.2577    1.0000 </r>
       <r>  -23.7723    1.0000 </r>
       <r>  -23.7705    1.0000 </r>
       <r>  -23.4248    1.0000 </r>
       <r>  -23.4100    1.0000 </r>
       <r>  -23.3993    1.0000 </r>
       <r>  -23.0790    1.0000 </r>
       <r>  -23.0773    1.0000 </r>
       <r>  -22.6791    1.0000 </r>
       <r>  -22.6367    1.0000 </r>
       <r>  -22.6348    1.0000 </r>
       <r>  -19.7326    1.0000 </r>
       <r>  -19.7310    1.0000 </r>
       <r>  -19.5945    1.0000 </r>
       <r>  -18.8439    1.0000 </r>
       <r>  -18.8408    1.0000 </r>
       <r>  -18.0754    1.0000 </r>
       <r>  -18.0154    1.0000 </r>
       <r>  -17.9984    1.0000 </r>
       <r>  -17.1078    1.0000 </r>
       <r>  -17.1066    1.0000 </r>
       <r>  -16.9626    1.0000 </r>
       <r>  -16.6488    1.0000 </r>
       <r>  -16.6461    1.0000 </r>
       <r>  -16.3205    1.0000 </r>
       <r>  -15.3646    1.0000 </r>
       <r>  -15.3618    1.0000 </r>
       <r>  -15.2169    1.0000 </r>
       <r>  -14.9071    1.0000 </r>
       <r>  -14.7612    1.0000 </r>
       <r>  -14.6311    1.0000 </r>
       <r>  -14.2736    1.0000 </r>
       <r>  -14.2708    1.0000 </r>
       <r>  -14.2300    1.0000 </r>
       <r>  -14.2289    1.0000 </r>
       <r>  -13.9123    1.0000 </r>
       <r>  -13.7280    1.0000 </r>
       <r>  -13.7205    1.0000 </r>
       <r>  -13.1442    1.0000 </r>
       <r>  -12.9581    1.0000 </r>
       <r>  -12.5743    1.0000 </r>
       <r>  -12.5688    1.0000 </r>
       <r>  -12.5583    1.0000 </r>
       <r>  -12.4869    1.0000 </r>
       <r>  -12.4618    1.0000 </r>
       <r>  -12.1262    1.0000 </r>
       <r>  -12.1230    1.0000 </r>
       <r>  -11.9622    1.0000 </r>
       <r>  -11.9579    1.0000 </r>
       <r>  -11.5700    1.0000 </r>
       <r>  -11.5659    1.0000 </r>
       <r>  -11.3748    1.0000 </r>
       <r>  -11.1807    1.0000 </r>
       <r>  -11.1779    1.0000 </r>
       <r>  -11.1731    1.0000 </r>
       <r>  -11.1551    1.0000 </r>
       <r>  -11.1544    1.0000 </r>
       <r>  -10.7678    1.0000 </r>
       <r>  -10.7652    1.0000 </r>
       <r>  -10.7641    1.0000 </r>
       <r>  -10.5353    1.0000 </r>
       <r>  -10.4889    1.0000 </r>
       <r>  -10.4781    1.0000 </r>
       <r>  -10.3376    1.0000 </r>
       <r>  -10.2880    1.0000 </r>
       <r>  -10.1599    1.0000 </r>
       <r>  -10.1556    1.0000 </r>
       <r>  -10.1388    1.0000 </r>
       <r>  -10.1345    1.0000 </r>
       <r>   -9.9054    1.0000 </r>
       <r>   -9.9014    1.0000 </r>
       <r>   -9.7729    1.0000 </r>
       <r>   -9.2940    1.0000 </r>
       <r>   -9.2915    1.0000 </r>
       <r>   -8.7607    1.0000 </r>
       <r>   -8.7487    1.0000 </r>
       <r>   -8.7351    1.0000 </r>
       <r>   -8.4912    1.0000 </r>
       <r>   -8.4883    1.0000 </r>
       <r>   -8.0952    1.0000 </r>
       <r>   -8.0873    1.0000 </r>
       <r>   -8.0866    1.0000 </r>
       <r>   -7.5162    1.0000 </r>
       <r>   -7.5155    1.0000 </r>
       <r>   -7.4145    1.0000 </r>
       <r>   -7.3881    1.0000 </r>
       <r>   -7.3870    1.0000 </r>
       <r>   -7.3544    1.0000 </r>
       <r>   -7.3334    1.0000 </r>
       <r>   -7.3293    1.0000 </r>
       <r>   -7.1461    1.0000 </r>
       <r>   -7.1426    1.0000 </r>
       <r>   -6.7395    1.0000 </r>
       <r>   -6.5668    1.0000 </r>
       <r>   -6.5650    1.0000 </r>
       <r>   -6.2877    1.0000 </r>
       <r>   -6.0515    1.0000 </r>
       <r>   -6.0467    1.0000 </r>
       <r>   -5.7201    1.0000 </r>
       <r>   -5.7149    1.0000 </r>
       <r>   -5.7046    1.0000 </r>
       <r>   -5.6387    1.0000 </r>
       <r>   -5.5340    1.0000 </r>
       <r>   -5.5271    1.0000 </r>
       <r>   -3.9073    0.0000 </r>
       <r>   -3.9069    0.0000 </r>
       <r>   -3.6641    0.0000 </r>
       <r>   -3.6618    0.0000 </r>
       <r>   -2.6636    0.0000 </r>
       <r>   -2.4613    0.0000 </r>
       <r>   -2.4572    0.0000 </r>
       <r>   -2.2678    0.0000 </r>
       <r>   -1.7138    0.0000 </r>
       <r>   -1.5578    0.0000 </r>
       <r>   -1.5497    0.0000 </r>
       <r>   -0.7003    0.0000 </r>
       <r>   -0.5745    0.0000 </r>
       <r>   -0.4428    0.0000 </r>
       <r>   -0.0866    0.0000 </r>
       <r>   -0.0817    0.0000 </r>
       <r>    0.0824    0.0000 </r>
       <r>    0.0905    0.0000 </r>
       <r>    0.1514    0.0000 </r>
       <r>    0.1551    0.0000 </r>
       <r>    0.3035    0.0000 </r>
       <r>    0.4269    0.0000 </r>
       <r>    0.4774    0.0000 </r>
       <r>    0.5122    0.0000 </r>
       <r>    0.5230    0.0000 </r>
       <r>    0.6248    0.0000 </r>
       <r>    0.6618    0.0000 </r>
       <r>    0.7590    0.0000 </r>
       <r>    0.7595    0.0000 </r>
       <r>    0.8559    0.0000 </r>
       <r>    0.8578    0.0000 </r>
       <r>    0.8748    0.0000 </r>
       <r>    0.8889    0.0000 </r>
       <r>    0.9080    0.0000 </r>
       <r>    0.9753    0.0000 </r>
       <r>    0.9776    0.0000 </r>
       <r>    1.0106    0.0000 </r>
       <r>    1.0978    0.0000 </r>
       <r>    1.1055    0.0000 </r>
       <r>    1.1099    0.0000 </r>
       <r>    1.1166    0.0000 </r>
       <r>    1.1252    0.0000 </r>
       <r>    1.1556    0.0000 </r>
      </set>
      <set comment="kpoint 3">
       <r>  -26.9201    1.0000 </r>
       <r>  -26.9128    1.0000 </r>
       <r>  -26.4572    1.0000 </r>
       <r>  -26.4539    1.0000 </r>
       <r>  -26.4280    1.0000 </r>
       <r>  -26.4247    1.0000 </r>
       <r>  -26.0740    1.0000 </r>
       <r>  -26.0463    1.0000 </r>
       <r>  -25.2031    1.0000 </r>
       <r>  -25.2022    1.0000 </r>
       <r>  -25.1950    1.0000 </r>
       <r>  -24.3385    1.0000 </r>
       <r>  -24.3355    1.0000 </r>
       <r>  -24.2582    1.0000 </r>
       <r>  -23.7722    1.0000 </r>
       <r>  -23.7696    1.0000 </r>
       <r>  -23.4372    1.0000 </r>
       <r>  -23.4100    1.0000 </r>
       <r>  -23.3869    1.0000 </r>
       <r>  -23.0797    1.0000 </r>
       <r>  -23.0776    1.0000 </r>
       <r>  -22.6789    1.0000 </r>
       <r>  -22.6367    1.0000 </r>
       <r>  -22.6349    1.0000 </r>
       <r>  -19.7326    1.0000 </r>
       <r>  -19.7305    1.0000 </r>
       <r>  -19.5954    1.0000 </r>
       <r>  -18.8438    1.0000 </r>
       <r>  -18.8387    1.0000 </r>
       <r>  -18.1027    1.0000 </r>
       <r>  -18.0153    1.0000 </r>
       <r>  -17.9705    1.0000 </r>
       <r>  -17.1081    1.0000 </r>
       <r>  -17.1077    1.0000 </r>
       <r>  -16.9625    1.0000 </r>
       <r>  -16.6574    1.0000 </r>
       <r>  -16.6462    1.0000 </r>
       <r>  -16.3106    1.0000 </r>
       <r>  -15.3730    1.0000 </r>
       <r>  -15.3620    1.0000 </r>
       <r>  -15.2100    1.0000 </r>
       <r>  -14.9074    1.0000 </r>
       <r>  -14.7612    1.0000 </r>
       <r>  -14.6322    1.0000 </r>
       <r>  -14.2747    1.0000 </r>
       <r>  -14.2715    1.0000 </r>
       <r>  -14.2293    1.0000 </r>
       <r>  -14.2276    1.0000 </r>
       <r>  -13.9110    1.0000 </r>
       <r>  -13.7284    1.0000 </r>
       <r>  -13.7207    1.0000 </r>
       <r>  -13.1435    1.0000 </r>
       <r>  -12.9591    1.0000 </r>
       <r>  -12.5745    1.0000 </r>
       <r>  -12.5689    1.0000 </r>
       <r>  -12.5584    1.0000 </r>
       <r>  -12.4868    1.0000 </r>
       <r>  -12.4621    1.0000 </r>
       <r>  -12.1258    1.0000 </r>
       <r>  -12.1218    1.0000 </r>
       <r>  -11.9626    1.0000 </r>
       <r>  -11.9583    1.0000 </r>
       <r>  -11.5698    1.0000 </r>
       <r>  -11.5657    1.0000 </r>
       <r>  -11.3771    1.0000 </r>
       <r>  -11.1807    1.0000 </r>
       <r>  -11.1780    1.0000 </r>
       <r>  -11.1731    1.0000 </r>
       <r>  -11.1547    1.0000 </r>
       <r>  -11.1516    1.0000 </r>
       <r>  -10.7678    1.0000 </r>
       <r>  -10.7652    1.0000 </r>
       <r>  -10.7641    1.0000 </r>
       <r>  -10.5526    1.0000 </r>
       <r>  -10.4888    1.0000 </r>
       <r>  -10.4610    1.0000 </r>
       <r>  -10.3374    1.0000 </r>
       <r>  -10.2879    1.0000 </r>
       <r>  -10.1598    1.0000 </r>
       <r>  -10.1556    1.0000 </r>
       <r>  -10.1388    1.0000 </r>
       <r>  -10.1346    1.0000 </r>
       <r>   -9.9054    1.0000 </r>
       <r>   -9.9015    1.0000 </r>
       <r>   -9.7761    1.0000 </r>
       <r>   -9.2940    1.0000 </r>
       <r>   -9.2885    1.0000 </r>
       <r>   -8.7738    1.0000 </r>
       <r>   -8.7487    1.0000 </r>
       <r>   -8.7229    1.0000 </r>
       <r>   -8.4912    1.0000 </r>
       <r>   -8.4887    1.0000 </r>
       <r>   -8.0952    1.0000 </r>
       <r>   -8.0873    1.0000 </r>
       <r>   -8.0866    1.0000 </r>
       <r>   -7.5159    1.0000 </r>
       <r>   -7.5152    1.0000 </r>
       <r>   -7.4148    1.0000 </r>
       <r>   -7.3887    1.0000 </r>
       <r>   -7.3875    1.0000 </r>
       <r>   -7.3577    1.0000 </r>
       <r>   -7.3328    1.0000 </r>
       <r>   -7.3252    1.0000 </r>
       <r>   -7.1462    1.0000 </r>
       <r>   -7.1433    1.0000 </r>
       <r>   -6.7388    1.0000 </r>
       <r>   -6.5673    1.0000 </r>
       <r>   -6.5655    1.0000 </r>
       <r>   -6.2864    1.0000 </r>
       <r>   -6.0516    1.0000 </r>
       <r>   -6.0478    1.0000 </r>
       <r>   -5.7201    1.0000 </r>
       <r>   -5.7148    1.0000 </r>
       <r>   -5.7044    1.0000 </r>
       <r>   -5.6382    1.0000 </r>
       <r>   -5.5340    1.0000 </r>
       <r>   -5.5275    1.0000 </r>
       <r>   -3.9069    0.0000 </r>
       <r>   -3.9064    0.0000 </r>
       <r>   -3.6655    0.0000 </r>
       <r>   -3.6619    0.0000 </r>
       <r>   -2.6619    0.0000 </r>
       <r>   -2.4613    0.0000 </r>
       <r>   -2.4576    0.0000 </r>
       <r>   -2.2670    0.0000 </r>
       <r>   -1.7275    0.0000 </r>
       <r>   -1.5576    0.0000 </r>
       <r>   -1.5356    0.0000 </r>
       <r>   -0.7037    0.0000 </r>
       <r>   -0.5741    0.0000 </r>
       <r>   -0.4439    0.0000 </r>
       <r>   -0.0866    0.0000 </r>
       <r>   -0.0803    0.0000 </r>
       <r>    0.0827    0.0000 </r>
       <r>    0.0921    0.0000 </r>
       <r>    0.1523    0.0000 </r>
       <r>    0.1546    0.0000 </r>
       <r>    0.3044    0.0000 </r>
       <r>    0.4270    0.0000 </r>
       <r>    0.4754    0.0000 </r>
       <r>    0.5122    0.0000 </r>
       <r>    0.5244    0.0000 </r>
       <r>    0.6250    0.0000 </r>
       <r>    0.6603    0.0000 </r>
       <r>    0.7584    0.0000 </r>
       <r>    0.7590    0.0000 </r>
       <r>    0.8474    0.0000 </r>
       <r>    0.8519    0.0000 </r>
       <r>    0.8684    0.0000 </r>
       <r>    0.8915    0.0000 </r>
       <r>    0.9241    0.0000 </r>
       <r>    0.9674    0.0000 </r>
       <r>    0.9773    0.0000 </r>
       <r>    1.0173    0.0000 </r>
       <r>    1.0879    0.0000 </r>
       <r>    1.1031    0.0000 </r>
       <r>    1.1112    0.0000 </r>
       <r>    1.1231    0.0000 </r>
       <r>    1.1369    0.0000 </r>
       <r>    1.1618    0.0000 </r>
      </set>
      <set comment="kpoint 4">
       <r>  -26.9201    1.0000 </r>
       <r>  -26.9128    1.0000 </r>
       <r>  -26.4571    1.0000 </r>
       <r>  -26.4538    1.0000 </r>
       <r>  -26.4282    1.0000 </r>
       <r>  -26.4248    1.0000 </r>
       <r>  -26.0738    1.0000 </r>
       <r>  -26.0465    1.0000 </r>
       <r>  -25.2031    1.0000 </r>
       <r>  -25.2022    1.0000 </r>
       <r>  -25.1951    1.0000 </r>
       <r>  -24.3384    1.0000 </r>
       <r>  -24.3351    1.0000 </r>
       <r>  -24.2589    1.0000 </r>
       <r>  -23.7722    1.0000 </r>
       <r>  -23.7680    1.0000 </r>
       <r>  -23.4497    1.0000 </r>
       <r>  -23.4100    1.0000 </r>
       <r>  -23.3746    1.0000 </r>
       <r>  -23.0810    1.0000 </r>
       <r>  -23.0777    1.0000 </r>
       <r>  -22.6785    1.0000 </r>
       <r>  -22.6367    1.0000 </r>
       <r>  -22.6351    1.0000 </r>
       <r>  -19.7326    1.0000 </r>
       <r>  -19.7297    1.0000 </r>
       <r>  -19.5968    1.0000 </r>
       <r>  -18.8437    1.0000 </r>
       <r>  -18.8352    1.0000 </r>
       <r>  -18.1317    1.0000 </r>
       <r>  -18.0153    1.0000 </r>
       <r>  -17.9402    1.0000 </r>
       <r>  -17.1105    1.0000 </r>
       <r>  -17.1078    1.0000 </r>
       <r>  -16.9622    1.0000 </r>
       <r>  -16.6709    1.0000 </r>
       <r>  -16.6463    1.0000 </r>
       <r>  -16.2953    1.0000 </r>
       <r>  -15.3857    1.0000 </r>
       <r>  -15.3620    1.0000 </r>
       <r>  -15.1999    1.0000 </r>
       <r>  -14.9080    1.0000 </r>
       <r>  -14.7612    1.0000 </r>
       <r>  -14.6340    1.0000 </r>
       <r>  -14.2764    1.0000 </r>
       <r>  -14.2727    1.0000 </r>
       <r>  -14.2283    1.0000 </r>
       <r>  -14.2253    1.0000 </r>
       <r>  -13.9090    1.0000 </r>
       <r>  -13.7292    1.0000 </r>
       <r>  -13.7211    1.0000 </r>
       <r>  -13.1423    1.0000 </r>
       <r>  -12.9607    1.0000 </r>
       <r>  -12.5748    1.0000 </r>
       <r>  -12.5692    1.0000 </r>
       <r>  -12.5584    1.0000 </r>
       <r>  -12.4867    1.0000 </r>
       <r>  -12.4626    1.0000 </r>
       <r>  -12.1252    1.0000 </r>
       <r>  -12.1198    1.0000 </r>
       <r>  -11.9632    1.0000 </r>
       <r>  -11.9589    1.0000 </r>
       <r>  -11.5694    1.0000 </r>
       <r>  -11.5654    1.0000 </r>
       <r>  -11.3808    1.0000 </r>
       <r>  -11.1808    1.0000 </r>
       <r>  -11.1780    1.0000 </r>
       <r>  -11.1732    1.0000 </r>
       <r>  -11.1547    1.0000 </r>
       <r>  -11.1465    1.0000 </r>
       <r>  -10.7677    1.0000 </r>
       <r>  -10.7652    1.0000 </r>
       <r>  -10.7641    1.0000 </r>
       <r>  -10.5718    1.0000 </r>
       <r>  -10.4888    1.0000 </r>
       <r>  -10.4420    1.0000 </r>
       <r>  -10.3372    1.0000 </r>
       <r>  -10.2878    1.0000 </r>
       <r>  -10.1597    1.0000 </r>
       <r>  -10.1555    1.0000 </r>
       <r>  -10.1388    1.0000 </r>
       <r>  -10.1346    1.0000 </r>
       <r>   -9.9053    1.0000 </r>
       <r>   -9.9016    1.0000 </r>
       <r>   -9.7813    1.0000 </r>
       <r>   -9.2940    1.0000 </r>
       <r>   -9.2838    1.0000 </r>
       <r>   -8.7872    1.0000 </r>
       <r>   -8.7488    1.0000 </r>
       <r>   -8.7109    1.0000 </r>
       <r>   -8.4913    1.0000 </r>
       <r>   -8.4894    1.0000 </r>
       <r>   -8.0951    1.0000 </r>
       <r>   -8.0873    1.0000 </r>
       <r>   -8.0867    1.0000 </r>
       <r>   -7.5154    1.0000 </r>
       <r>   -7.5148    1.0000 </r>
       <r>   -7.4154    1.0000 </r>
       <r>   -7.3897    1.0000 </r>
       <r>   -7.3884    1.0000 </r>
       <r>   -7.3615    1.0000 </r>
       <r>   -7.3319    1.0000 </r>
       <r>   -7.3199    1.0000 </r>
       <r>   -7.1464    1.0000 </r>
       <r>   -7.1443    1.0000 </r>
       <r>   -6.7377    1.0000 </r>
       <r>   -6.5688    1.0000 </r>
       <r>   -6.5659    1.0000 </r>
       <r>   -6.2842    1.0000 </r>
       <r>   -6.0517    1.0000 </r>
       <r>   -6.0496    1.0000 </r>
       <r>   -5.7200    1.0000 </r>
       <r>   -5.7146    1.0000 </r>
       <r>   -5.7041    1.0000 </r>
       <r>   -5.6374    1.0000 </r>
       <r>   -5.5340    1.0000 </r>
       <r>   -5.5282    1.0000 </r>
       <r>   -3.9069    0.0000 </r>
       <r>   -3.9048    0.0000 </r>
       <r>   -3.6677    0.0000 </r>
       <r>   -3.6619    0.0000 </r>
       <r>   -2.6590    0.0000 </r>
       <r>   -2.4613    0.0000 </r>
       <r>   -2.4581    0.0000 </r>
       <r>   -2.2658    0.0000 </r>
       <r>   -1.7466    0.0000 </r>
       <r>   -1.5576    0.0000 </r>
       <r>   -1.5157    0.0000 </r>
       <r>   -0.7095    0.0000 </r>
       <r>   -0.5734    0.0000 </r>
       <r>   -0.4457    0.0000 </r>
       <r>   -0.0867    0.0000 </r>
       <r>   -0.0779    0.0000 </r>
       <r>    0.0828    0.0000 </r>
       <r>    0.0952    0.0000 </r>
       <r>    0.1531    0.0000 </r>
       <r>    0.1544    0.0000 </r>
       <r>    0.3058    0.0000 </r>
       <r>    0.4269    0.0000 </r>
       <r>    0.4728    0.0000 </r>
       <r>    0.5121    0.0000 </r>
       <r>    0.5263    0.0000 </r>
       <r>    0.6252    0.0000 </r>
       <r>    0.6578    0.0000 </r>
       <r>    0.7568    0.0000 </r>
       <r>    0.7586    0.0000 </r>
       <r>    0.8335    0.0000 </r>
       <r>    0.8460    0.0000 </r>
       <r>    0.8657    0.0000 </r>
       <r>    0.8944    0.0000 </r>
       <r>    0.9399    0.0000 </r>
       <r>    0.9586    0.0000 </r>
       <r>    0.9770    0.0000 </r>
       <r>    1.0243    0.0000 </r>
       <r>    1.0784    0.0000 </r>
       <r>    1.1027    0.0000 </r>
       <r>    1.1136    0.0000 </r>
       <r>    1.1312    0.0000 </r>
       <r>    1.1489    0.0000 </r>
       <r>    1.1713    0.0000 </r>
      </set>
      <set comment="kpoint 5">
       <r>  -26.9200    1.0000 </r>
       <r>  -26.9129    1.0000 </r>
       <r>  -26.4569    1.0000 </r>
       <r>  -26.4537    1.0000 </r>
       <r>  -26.4283    1.0000 </r>
       <r>  -26.4249    1.0000 </r>
       <r>  -26.0735    1.0000 </r>
       <r>  -26.0468    1.0000 </r>
       <r>  -25.2031    1.0000 </r>
       <r>  -25.2021    1.0000 </r>
       <r>  -25.1952    1.0000 </r>
       <r>  -24.3384    1.0000 </r>
       <r>  -24.3344    1.0000 </r>
       <r>  -24.2600    1.0000 </r>
       <r>  -23.7721    1.0000 </r>
       <r>  -23.7657    1.0000 </r>
       <r>  -23.4622    1.0000 </r>
       <r>  -23.4100    1.0000 </r>
       <r>  -23.3623    1.0000 </r>
       <r>  -23.0829    1.0000 </r>
       <r>  -23.0778    1.0000 </r>
       <r>  -22.6779    1.0000 </r>
       <r>  -22.6368    1.0000 </r>
       <r>  -22.6355    1.0000 </r>
       <r>  -19.7326    1.0000 </r>
       <r>  -19.7287    1.0000 </r>
       <r>  -19.5988    1.0000 </r>
       <r>  -18.8437    1.0000 </r>
       <r>  -18.8303    1.0000 </r>
       <r>  -18.1610    1.0000 </r>
       <r>  -18.0153    1.0000 </r>
       <r>  -17.9092    1.0000 </r>
       <r>  -17.1140    1.0000 </r>
       <r>  -17.1077    1.0000 </r>
       <r>  -16.9618    1.0000 </r>
       <r>  -16.6877    1.0000 </r>
       <r>  -16.6463    1.0000 </r>
       <r>  -16.2757    1.0000 </r>
       <r>  -15.4015    1.0000 </r>
       <r>  -15.3619    1.0000 </r>
       <r>  -15.1877    1.0000 </r>
       <r>  -14.9088    1.0000 </r>
       <r>  -14.7611    1.0000 </r>
       <r>  -14.6365    1.0000 </r>
       <r>  -14.2785    1.0000 </r>
       <r>  -14.2741    1.0000 </r>
       <r>  -14.2271    1.0000 </r>
       <r>  -14.2225    1.0000 </r>
       <r>  -13.9061    1.0000 </r>
       <r>  -13.7302    1.0000 </r>
       <r>  -13.7215    1.0000 </r>
       <r>  -13.1407    1.0000 </r>
       <r>  -12.9630    1.0000 </r>
       <r>  -12.5752    1.0000 </r>
       <r>  -12.5695    1.0000 </r>
       <r>  -12.5585    1.0000 </r>
       <r>  -12.4866    1.0000 </r>
       <r>  -12.4633    1.0000 </r>
       <r>  -12.1243    1.0000 </r>
       <r>  -12.1171    1.0000 </r>
       <r>  -11.9641    1.0000 </r>
       <r>  -11.9597    1.0000 </r>
       <r>  -11.5690    1.0000 </r>
       <r>  -11.5648    1.0000 </r>
       <r>  -11.3856    1.0000 </r>
       <r>  -11.1808    1.0000 </r>
       <r>  -11.1781    1.0000 </r>
       <r>  -11.1732    1.0000 </r>
       <r>  -11.1546    1.0000 </r>
       <r>  -11.1396    1.0000 </r>
       <r>  -10.7677    1.0000 </r>
       <r>  -10.7651    1.0000 </r>
       <r>  -10.7642    1.0000 </r>
       <r>  -10.5916    1.0000 </r>
       <r>  -10.4887    1.0000 </r>
       <r>  -10.4227    1.0000 </r>
       <r>  -10.3370    1.0000 </r>
       <r>  -10.2875    1.0000 </r>
       <r>  -10.1596    1.0000 </r>
       <r>  -10.1553    1.0000 </r>
       <r>  -10.1388    1.0000 </r>
       <r>  -10.1347    1.0000 </r>
       <r>   -9.9053    1.0000 </r>
       <r>   -9.9017    1.0000 </r>
       <r>   -9.7884    1.0000 </r>
       <r>   -9.2940    1.0000 </r>
       <r>   -9.2772    1.0000 </r>
       <r>   -8.8008    1.0000 </r>
       <r>   -8.7488    1.0000 </r>
       <r>   -8.6993    1.0000 </r>
       <r>   -8.4916    1.0000 </r>
       <r>   -8.4902    1.0000 </r>
       <r>   -8.0951    1.0000 </r>
       <r>   -8.0873    1.0000 </r>
       <r>   -8.0868    1.0000 </r>
       <r>   -7.5149    1.0000 </r>
       <r>   -7.5139    1.0000 </r>
       <r>   -7.4162    1.0000 </r>
       <r>   -7.3910    1.0000 </r>
       <r>   -7.3898    1.0000 </r>
       <r>   -7.3651    1.0000 </r>
       <r>   -7.3306    1.0000 </r>
       <r>   -7.3141    1.0000 </r>
       <r>   -7.1467    1.0000 </r>
       <r>   -7.1456    1.0000 </r>
       <r>   -6.7361    1.0000 </r>
       <r>   -6.5712    1.0000 </r>
       <r>   -6.5660    1.0000 </r>
       <r>   -6.2811    1.0000 </r>
       <r>   -6.0527    1.0000 </r>
       <r>   -6.0511    1.0000 </r>
       <r>   -5.7200    1.0000 </r>
       <r>   -5.7144    1.0000 </r>
       <r>   -5.7038    1.0000 </r>
       <r>   -5.6362    1.0000 </r>
       <r>   -5.5340    1.0000 </r>
       <r>   -5.5291    1.0000 </r>
       <r>   -3.9069    0.0000 </r>
       <r>   -3.9027    0.0000 </r>
       <r>   -3.6709    0.0000 </r>
       <r>   -3.6620    0.0000 </r>
       <r>   -2.6551    0.0000 </r>
       <r>   -2.4613    0.0000 </r>
       <r>   -2.4589    0.0000 </r>
       <r>   -2.2640    0.0000 </r>
       <r>   -1.7686    0.0000 </r>
       <r>   -1.5576    0.0000 </r>
[...]
       <r>    1.0073    0.0000 </r>
       <r>    1.1043    0.0000 </r>
       <r>    1.1070    0.0000 </r>
       <r>    1.1097    0.0000 </r>
       <r>    1.1143    0.0000 </r>
       <r>    1.1174    0.0000 </r>
       <r>    1.1535    0.0000 </r>
      </set>
     </set>
    </set>
   </array>
  </eigenvalues>
  <separator name="orbital magnetization" >
   <v name="MAGDIPOLOUT">      0.00000000      0.00000000      0.00000000</v>
  </separator>
  <dos>
   <i name="efermi">     -5.43398683 </i>
   <total>
    <array>
     <dimension dim="1">gridpoints</dimension>
     <dimension dim="2">spin</dimension>
     <field>energy</field>
     <field>total</field>
     <field>integrated</field>
     <set>
      <set comment="spin 1">
       <r>   -28.3314     0.0000     0.0000 </r>
       <r>   -28.2279     0.0000     0.0000 </r>
       <r>   -28.1244     0.0000     0.0000 </r>
       <r>   -28.0209     0.0000     0.0000 </r>
       <r>   -27.9175     0.0000     0.0000 </r>
       <r>   -27.8140     0.0000     0.0000 </r>
       <r>   -27.7105     0.0000     0.0000 </r>
       <r>   -27.6070     0.0000     0.0000 </r>
       <r>   -27.5035     0.0000     0.0000 </r>
       <r>   -27.4000     0.0000     0.0000 </r>
       <r>   -27.2965     0.0000     0.0000 </r>
       <r>   -27.1930     0.0000     0.0000 </r>
       <r>   -27.0895     0.0000     0.0000 </r>
       <r>   -26.9860     0.0000     0.0000 </r>
       <r>   -26.8825    38.6505     4.0000 </r>
       <r>   -26.7791     0.0000     4.0000 </r>
       <r>   -26.6756     0.0000     4.0000 </r>
       <r>   -26.5721     0.0000     4.0000 </r>
       <r>   -26.4686     0.8125     4.0841 </r>
       <r>   -26.3651    46.3789    12.0000 </r>
       <r>   -26.2616     0.0000    12.0000 </r>
       <r>   -26.1581     0.0000    12.0000 </r>
       <r>   -26.0546    27.2021    14.8152 </r>
       <r>   -25.9511     0.0000    16.0000 </r>
       <r>   -25.8476     0.0000    16.0000 </r>
       <r>   -25.7441     0.0000    16.0000 </r>
       <r>   -25.6406     0.0000    16.0000 </r>
       <r>   -25.5372     0.0000    16.0000 </r>
       <r>   -25.4337     0.0000    16.0000 </r>
       <r>   -25.3302     0.0000    16.0000 </r>
       <r>   -25.2267     0.0096    16.0010 </r>
       <r>   -25.1232    57.9663    22.0000 </r>
       <r>   -25.0197     0.0000    22.0000 </r>
       <r>   -24.9162     0.0000    22.0000 </r>
       <r>   -24.8127     0.0000    22.0000 </r>
       <r>   -24.7092     0.0000    22.0000 </r>
       <r>   -24.6057     0.0000    22.0000 </r>
       <r>   -24.5022     0.0000    22.0000 </r>
       <r>   -24.3988     0.0000    22.0000 </r>
       <r>   -24.2953    43.4435    26.4960 </r>
       <r>   -24.1918     3.5428    28.0000 </r>
       <r>   -24.0883     0.0000    28.0000 </r>
       <r>   -23.9848     0.0000    28.0000 </r>
       <r>   -23.8813     0.0000    28.0000 </r>
       <r>   -23.7778     3.9120    28.4049 </r>
       <r>   -23.6743    12.3640    31.5462 </r>
       <r>   -23.5708    14.8465    33.5365 </r>
       <r>   -23.4673     2.2775    33.8357 </r>
       <r>   -23.3638    21.6961    36.1454 </r>
       <r>   -23.2604     2.4487    36.4534 </r>
       <r>   -23.1569    20.3851    38.6430 </r>
       <r>   -23.0534    24.4737    41.9995 </r>
       <r>   -22.9499     0.0000    42.0000 </r>
       <r>   -22.8464     0.0000    42.0000 </r>
       <r>   -22.7429     0.0000    42.0000 </r>
       <r>   -22.6394    40.6913    46.2112 </r>
       <r>   -22.5359     0.0000    48.0000 </r>
       <r>   -22.4324     0.0000    48.0000 </r>
       <r>   -22.3289     0.0000    48.0000 </r>
       <r>   -22.2254     0.0000    48.0000 </r>
       <r>   -22.1219     0.0000    48.0000 </r>
       <r>   -22.0185     0.0000    48.0000 </r>
       <r>   -21.9150     0.0000    48.0000 </r>
       <r>   -21.8115     0.0000    48.0000 </r>
       <r>   -21.7080     0.0000    48.0000 </r>
       <r>   -21.6045     0.0000    48.0000 </r>
       <r>   -21.5010     0.0000    48.0000 </r>
       <r>   -21.3975     0.0000    48.0000 </r>
       <r>   -21.2940     0.0000    48.0000 </r>
       <r>   -21.1905     0.0000    48.0000 </r>
       <r>   -21.0870     0.0000    48.0000 </r>
       <r>   -20.9835     0.0000    48.0000 </r>
       <r>   -20.8801     0.0000    48.0000 </r>
       <r>   -20.7766     0.0000    48.0000 </r>
       <r>   -20.6731     0.0000    48.0000 </r>
       <r>   -20.5696     0.0000    48.0000 </r>
       <r>   -20.4661     0.0000    48.0000 </r>
       <r>   -20.3626     0.0000    48.0000 </r>
       <r>   -20.2591     0.0000    48.0000 </r>
       <r>   -20.1556     0.0000    48.0000 </r>
       <r>   -20.0521     0.0000    48.0000 </r>
       <r>   -19.9486     0.0000    48.0000 </r>
       <r>   -19.8451     0.0000    48.0000 </r>
       <r>   -19.7416     1.7529    48.1814 </r>
       <r>   -19.6382    30.4103    53.4805 </r>
       <r>   -19.5347     2.8988    54.0000 </r>
       <r>   -19.4312     0.0000    54.0000 </r>
       <r>   -19.3277     0.0000    54.0000 </r>
       <r>   -19.2242     0.0000    54.0000 </r>
       <r>   -19.1207     0.0000    54.0000 </r>
       <r>   -19.0172     0.0000    54.0000 </r>
       <r>   -18.9137     0.0000    54.0000 </r>
       <r>   -18.8102    21.6727    56.2429 </r>
       <r>   -18.7067     2.0315    56.5269 </r>
       <r>   -18.6032    12.0227    57.8609 </r>
       <r>   -18.4998     7.6800    58.9115 </r>
       <r>   -18.3963     1.5488    59.5603 </r>
       <r>   -18.2928     0.9402    59.6973 </r>
       <r>   -18.1893     0.8206    59.8183 </r>
       <r>   -18.0858     0.9857    59.9353 </r>
       <r>   -17.9823    20.3010    62.0676 </r>
       <r>   -17.8788     0.7801    62.1807 </r>
       <r>   -17.7753     0.9219    62.2954 </r>
       <r>   -17.6718     0.8285    62.4024 </r>
       <r>   -17.5683     1.0057    62.5374 </r>
       <r>   -17.4648     9.3014    63.5459 </r>
       <r>   -17.3614     5.0073    64.2349 </r>
       <r>   -17.2579    10.0053    65.4355 </r>
       <r>   -17.1544     1.6950    65.6754 </r>
       <r>   -17.0509    21.5799    68.0000 </r>
       <r>   -16.9474     7.3416    68.7598 </r>
       <r>   -16.8439    13.9030    71.5722 </r>
       <r>   -16.7404     1.2504    71.7627 </r>
       <r>   -16.6369    19.5579    73.8241 </r>
       <r>   -16.5334     0.0000    74.0000 </r>
       <r>   -16.4299     0.0000    74.0000 </r>
       <r>   -16.3264     0.1851    74.0192 </r>
       <r>   -16.2229     1.2129    74.2255 </r>
       <r>   -16.1195     0.7822    74.3476 </r>
       <r>   -16.0160     1.0420    74.4745 </r>
       <r>   -15.9125     6.8670    75.2107 </r>
       <r>   -15.8090     5.1875    75.9702 </r>
       <r>   -15.7055     6.0856    76.7631 </r>
       <r>   -15.6020     3.4052    77.5358 </r>
       <r>   -15.4985     1.2077    77.6917 </r>
       <r>   -15.3950     1.2612    77.8639 </r>
       <r>   -15.2915    19.9695    80.0000 </r>
       <r>   -15.1880     1.4352    80.1485 </r>
       <r>   -15.0845     2.0025    80.4072 </r>
       <r>   -14.9811    15.8080    82.1027 </r>
       <r>   -14.8776    12.2389    84.0000 </r>
       <r>   -14.7741     0.0998    84.0103 </r>
       <r>   -14.6706    30.2848    87.6009 </r>
       <r>   -14.5671     2.2546    88.0000 </r>
       <r>   -14.4636     0.0000    88.0000 </r>
       <r>   -14.3601     0.0000    88.0000 </r>
       <r>   -14.2566    35.7286    91.6976 </r>
       <r>   -14.1531    34.1354    95.9994 </r>
       <r>   -14.0496     0.0000    96.0000 </r>
       <r>   -13.9461     0.0000    96.0000 </r>
       <r>   -13.8426     5.2739    96.5458 </r>
       <r>   -13.7392    22.9743    99.7777 </r>
       <r>   -13.6357     0.0000   102.0000 </r>
       <r>   -13.5322     0.0000   102.0000 </r>
       <r>   -13.4287     0.0000   102.0000 </r>
       <r>   -13.3252     0.0000   102.0000 </r>
       <r>   -13.2217     0.0000   102.0000 </r>
       <r>   -13.1182     3.6703   102.3798 </r>
       <r>   -13.0147    28.0475   105.4694 </r>
       <r>   -12.9112     3.5430   106.0000 </r>
       <r>   -12.8077     0.0000   106.0000 </r>
       <r>   -12.7042     0.0000   106.0000 </r>
       <r>   -12.6008     0.0775   106.0080 </r>
       <r>   -12.4973    42.6283   112.0785 </r>
       <r>   -12.3938     6.7631   116.0000 </r>
       <r>   -12.2903     0.0000   116.0000 </r>
       <r>   -12.1868     0.0000   116.0000 </r>
       <r>   -12.0833    22.7732   118.3568 </r>
       <r>   -11.9798    33.7601   121.9939 </r>
       <r>   -11.8763     0.0000   124.0000 </r>
       <r>   -11.7728     0.0000   124.0000 </r>
       <r>   -11.6693     0.0000   124.0000 </r>
       <r>   -11.5658    14.1631   125.4658 </r>
       <r>   -11.4624    28.7658   129.4604 </r>
       <r>   -11.3589     3.8540   129.9989 </r>
       <r>   -11.2554     0.0000   130.0000 </r>
       <r>   -11.1519    71.5340   137.4031 </r>
       <r>   -11.0484     2.0787   138.4151 </r>
       <r>   -10.9449    10.6104   139.5648 </r>
       <r>   -10.8414     9.6947   140.8200 </r>
       <r>   -10.7379    59.5072   147.5918 </r>
       <r>   -10.6344     1.3932   147.7775 </r>
       <r>   -10.5309     1.2864   147.9665 </r>
       <r>   -10.4274    20.6899   150.1412 </r>
       <r>   -10.3239    20.2406   152.2614 </r>
       <r>   -10.2205     4.4929   154.4650 </r>
       <r>   -10.1170    79.8171   162.7937 </r>
       <r>   -10.0135     8.7782   164.3918 </r>
       <r>    -9.9100    14.2409   166.1405 </r>
       <r>    -9.8065     2.1316   169.7873 </r>
       <r>    -9.7030     1.2883   170.0000 </r>
       <r>    -9.5995     0.0000   170.0000 </r>
       <r>    -9.4960     0.0000   170.0000 </r>
       <r>    -9.3925     0.0000   170.0000 </r>
       <r>    -9.2890    14.7097   171.5223 </r>
       <r>    -9.1855     2.1258   172.4200 </r>
       <r>    -9.0821    11.1764   173.6233 </r>
       <r>    -8.9786    13.0148   175.2303 </r>
       <r>    -8.8751     2.0092   175.6746 </r>
       <r>    -8.7716     1.8391   175.9237 </r>
       <r>    -8.6681     8.4890   178.2454 </r>
       <r>    -8.5646    12.8982   179.6682 </r>
       <r>    -8.4611    34.6235   183.9999 </r>
       <r>    -8.3576     0.0000   184.0000 </r>
       <r>    -8.2541     0.0000   184.0000 </r>
       <r>    -8.1506     0.0000   184.0000 </r>
       <r>    -8.0471    57.9759   190.0000 </r>
       <r>    -7.9436     0.0000   190.0000 </r>
       <r>    -7.8402     0.0000   190.0000 </r>
       <r>    -7.7367     0.0000   190.0000 </r>
       <r>    -7.6332     0.0000   190.0000 </r>
       <r>    -7.5297     0.0978   190.0101 </r>
       <r>    -7.4262    53.3677   196.4066 </r>
       <r>    -7.3227    45.4358   202.4023 </r>
       <r>    -7.2192    14.8783   205.7731 </r>
       <r>    -7.1157    27.0549   210.0000 </r>
       <r>    -7.0122     0.0000   210.0000 </r>
       <r>    -6.9087     0.0000   210.0000 </r>
       <r>    -6.8052     0.0000   210.0000 </r>
       <r>    -6.7018     4.9335   210.5106 </r>
       <r>    -6.5983    20.6961   213.6419 </r>
       <r>    -6.4948    21.2577   216.0000 </r>
       <r>    -6.3913     0.0000   216.0000 </r>
       <r>    -6.2878     0.6445   216.0667 </r>
       <r>    -6.1843    12.0465   217.5134 </r>
       <r>    -6.0808    14.8896   219.6576 </r>
       <r>    -5.9773    21.0965   222.0000 </r>
       <r>    -5.8738     0.0000   222.0000 </r>
       <r>    -5.7703     0.0000   222.0000 </r>
       <r>    -5.6668    57.9760   228.0000 </r>
       <r>    -5.5634    29.6313   231.0666 </r>
       <r>    -5.4599    22.2238   234.0000 </r>
       <r>    -5.3564     0.0000   234.0000 </r>
       <r>    -5.2529     0.0000   234.0000 </r>
       <r>    -5.1494     0.0000   234.0000 </r>
       <r>    -5.0459     0.0000   234.0000 </r>
       <r>    -4.9424     0.0000   234.0000 </r>
       <r>    -4.8389     0.0000   234.0000 </r>
       <r>    -4.7354     0.0000   234.0000 </r>
       <r>    -4.6319     0.0000   234.0000 </r>
       <r>    -4.5284     0.0000   234.0000 </r>
       <r>    -4.4249     0.0000   234.0000 </r>
       <r>    -4.3215     0.0000   234.0000 </r>
       <r>    -4.2180     0.0000   234.0000 </r>
       <r>    -4.1145     0.0000   234.0000 </r>
       <r>    -4.0110     0.0000   234.0000 </r>
       <r>    -3.9075    10.0038   235.0353 </r>
       <r>    -3.8040    15.0185   237.8710 </r>
       <r>    -3.7005    12.4247   239.6692 </r>
       <r>    -3.5970    21.2578   242.0000 </r>
       <r>    -3.4935     0.0000   242.0000 </r>
       <r>    -3.3900     0.0000   242.0000 </r>
       <r>    -3.2865     0.0000   242.0000 </r>
       <r>    -3.1831     0.0000   242.0000 </r>
       <r>    -3.0796     0.0000   242.0000 </r>
       <r>    -2.9761     0.0000   242.0000 </r>
       <r>    -2.8726     0.0000   242.0000 </r>
       <r>    -2.7691     0.0000   242.0000 </r>
       <r>    -2.6656     0.4415   242.0457 </r>
       <r>    -2.5621     4.6878   242.7185 </r>
       <r>    -2.4586    32.7638   246.9408 </r>
       <r>    -2.3551     0.0000   248.0000 </r>
       <r>    -2.2516     2.6371   248.2729 </r>
       <r>    -2.1481    12.8116   249.7592 </r>
       <r>    -2.0446    11.9413   251.3025 </r>
       <r>    -1.9412     1.3438   251.6057 </r>
       <r>    -1.8377     1.1834   251.7558 </r>
       <r>    -1.7342     1.0105   251.9046 </r>
       <r>    -1.6307     0.3220   252.0000 </r>
       <r>    -1.5272    20.2721   254.0980 </r>
       <r>    -1.4237     0.9941   254.2362 </r>
       <r>    -1.3202     0.9659   254.3666 </r>
       <r>    -1.2167     1.0324   254.5068 </r>
       <r>    -1.1132     9.3180   255.4977 </r>
       <r>    -1.0097     5.7549   256.2623 </r>
       <r>    -0.9062     9.5380   257.4538 </r>
       <r>    -0.8028     1.4169   257.6466 </r>
       <r>    -0.6993     2.4807   257.9567 </r>
       <r>    -0.5958     0.0017   258.0002 </r>
       <r>    -0.4923    31.5133   261.4280 </r>
       <r>    -0.3888     3.2208   262.0000 </r>
       <r>    -0.2853     0.0000   262.0000 </r>
       <r>    -0.1818     0.0000   262.0000 </r>
       <r>    -0.0783    19.8914   264.0586 </r>
       <r>     0.0252    12.1344   265.5225 </r>
       <r>     0.1287    36.0962   269.6023 </r>
       <r>     0.2322    21.6930   272.5617 </r>
       <r>     0.3356    18.5281   275.3175 </r>
       <r>     0.4391    23.5745   278.4064 </r>
       <r>     0.5426    46.1314   283.9742 </r>
       <r>     0.6461    11.7615   286.6505 </r>
       <r>     0.7496    50.3420   292.6433 </r>
       <r>     0.8531    36.3821   298.0319 </r>
       <r>     0.9566    35.0483   302.5272 </r>
       <r>     1.0601    39.3662   307.5241 </r>
       <r>     1.1636    27.0378   311.2482 </r>
       <r>     1.2671    45.3402   317.7590 </r>
       <r>     1.3706     8.6959   320.0000 </r>
       <r>     1.4741     0.0000   320.0000 </r>
       <r>     1.5775     0.0000   320.0000 </r>
       <r>     1.6810     0.0000   320.0000 </r>
       <r>     1.7845     0.0000   320.0000 </r>
       <r>     1.8880     0.0000   320.0000 </r>
       <r>     1.9915     0.0000   320.0000 </r>
       <r>     2.0950     0.0000   320.0000 </r>
       <r>     2.1985     0.0000   320.0000 </r>
       <r>     2.3020     0.0000   320.0000 </r>
       <r>     2.4055     0.0000   320.0000 </r>
       <r>     2.5090     0.0000   320.0000 </r>
       <r>     2.6125     0.0000   320.0000 </r>
       <r>     2.7159     0.0000   320.0000 </r>
      </set>
     </set>
    </array>
   </total>
  </dos>
 </calculation>
 <structure name="finalpos" >
  <crystal>
   <varray name="basis" >
    <v>      21.44931749      -0.05643362       0.00000000 </v>
    <v>     -10.77340020      18.55630764       0.00000000 </v>
    <v>      -0.00000000       0.00000000      20.00000000 </v>
   </varray>
   <i name="volume">   7948.24304266 </i>
   <varray name="rec_basis" >
    <v>       0.04669285       0.02710888       0.00000000 </v>
    <v>       0.00014200       0.05397248       0.00000000 </v>
    <v>       0.00000000       0.00000000       0.05000000 </v>
   </varray>
  </crystal>
  <varray name="positions" >
   <v>       0.48091962       0.18054822       0.54940745 </v>
   <v>       0.68892624       0.51660283       0.54899844 </v>
   <v>       0.81693063       0.30946310       0.55014932 </v>
   <v>       0.51173212       0.82428728       0.45740176 </v>
   <v>       0.30335768       0.48734465       0.45617650 </v>
   <v>       0.17526610       0.69372092       0.45089493 </v>
   <v>       0.72010398       0.40481213       0.55005127 </v>
   <v>       0.67400648       0.27829657       0.55068965 </v>
   <v>       0.59343144       0.32376284       0.55074815 </v>
   <v>       0.27279539       0.59915388       0.45496586 </v>
   <v>       0.31870597       0.72562278       0.45426206 </v>
   <v>       0.39946352       0.68039935       0.45582975 </v>
   <v>       0.45786796       0.03944246       0.50689897 </v>
   <v>       0.42495157       0.85914782       0.46984918 </v>
   <v>       0.95787195       0.42628369       0.50728420 </v>
   <v>       0.13933547       0.57225576       0.46869651 </v>
   <v>       0.57167959       0.53902778       0.50683621 </v>
   <v>       0.42549027       0.57347808       0.47082078 </v>
   <v>       0.53398366       0.96454331       0.49956284 </v>
   <v>       0.56706076       0.14490293       0.53636979 </v>
   <v>       0.03527471       0.57769551       0.49807919 </v>
   <v>       0.85359188       0.43158763       0.53602535 </v>
   <v>       0.42014034       0.46377916       0.49942375 </v>
   <v>       0.56667257       0.42970630       0.53585713 </v>
   <v>       0.72823270       0.34672010       0.55024573 </v>
   <v>       0.60753456       0.26981234       0.55051177 </v>
   <v>       0.80486484       0.35924579       0.54611651 </v>
   <v>       0.54307369       0.19302740       0.54602437 </v>
   <v>       0.63917512       0.45424758       0.54558575 </v>
   <v>       0.26454876       0.65717795       0.45428682 </v>
   <v>       0.38523696       0.73429306       0.45554835 </v>
   <v>       0.18775486       0.64438566       0.45709903 </v>
   <v>       0.44938024       0.81129076       0.46042556 </v>
   <v>       0.35329299       0.54954097       0.46033000 </v>
   <v>       0.42541415       0.97013443       0.49006500 </v>
   <v>       0.46320498       0.93216006       0.48620479 </v>
   <v>       0.02716062       0.46231254       0.49015104 </v>
   <v>       0.06636797       0.53829264       0.48524258 </v>
   <v>       0.53552325       0.57196428       0.49032553 </v>
   <v>       0.45945809       0.53461340       0.48654255 </v>
   <v>       0.65175301       0.39034521       0.55013522 </v>
   <v>       0.34116229       0.61374845       0.45578218 </v>
   <v>       0.52865385       0.07183752       0.52019394 </v>
   <v>       0.56641209       0.03383070       0.51644215 </v>
   <v>       0.92667430       0.46564754       0.51982117 </v>
   <v>       0.96598307       0.54166852       0.51524598 </v>
   <v>       0.53241649       0.46824147       0.51987852 </v>
   <v>       0.45633783       0.43085555       0.51601038 </v>
   <v>       0.36752400       0.94342405       0.47917260 </v>
   <v>       0.36989822       0.83504364       0.46686139 </v>
   <v>       0.05284437       0.43028546       0.47990249 </v>
   <v>       0.16284355       0.54091190       0.46745657 </v>
   <v>       0.56749956       0.62985199       0.47961338 </v>
   <v>       0.45722002       0.62852648       0.46860417 </v>
   <v>       0.62427308       0.06051937       0.52747088 </v>
   <v>       0.62214504       0.16890150       0.53885924 </v>
   <v>       0.94041460       0.57373042       0.52587498 </v>
   <v>       0.83026442       0.46307451       0.53790419 </v>
   <v>       0.42437180       0.37296302       0.52672513 </v>
   <v>       0.53527573       0.37464624       0.53843627 </v>
  </varray>
 </structure>
</modeling>
