<?xml version="1.0" encoding="ISO-8859-1"?>
<modeling>
 <generator>
  <i name="program" type="string">vasp </i>
  <i name="version" type="string">5.4.4.18Apr17-6-g9f103f2a35  </i>
  <i name="subversion" type="string">(build Jun 07 2020 16:50:00) complex            parallel </i>
  <i name="platform" type="string">LinuxIFC </i>
  <i name="date" type="string">2023 03 05 </i>
  <i name="time" type="string">15:02:31 </i>
 </generator>
 <incar>
  <i type="string" name="SYSTEM">Simulation for cell shape cell volume r</i>
  <i type="int" name="ISTART">     1</i>
  <i type="string" name="PREC">high</i>
  <i type="string" name="ALGO">48</i>
  <i type="int" name="ICHARG">    11</i>
  <i type="int" name="NELM">   200</i>
  <i type="int" name="IBRION">    -1</i>
  <i name="EDIFF">      0.00001000</i>
  <i name="EDIFFG">     -0.01000000</i>
  <i type="int" name="NSW">     0</i>
  <i type="int" name="ISIF">     2</i>
  <i name="ENCUT">    500.00000000</i>
  <i name="POTIM">      0.30000000</i>
  <i type="string" name="LREAL">A</i>
  <i type="int" name="ISMEAR">     0</i>
  <i name="SIGMA">      0.01000000</i>
  <i type="int" name="NWRITE">     0</i>
  <i type="logical" name="LWAVE"> F  </i>
  <i type="logical" name="LCHARG"> F  </i>
  <v type="int" name="KPOINT_BSE">    -1     0     0     0</v>
  <i type="int" name="NELM">   200</i>
  <i type="string" name="GGA">PE</i>
 </incar>
 <structure name="primitive_cell" >
  <crystal>
   <varray name="basis" >
    <v>      28.91100478       0.00193079       0.00000000 </v>
    <v>     -14.45381593      25.02999182       0.00000000 </v>
    <v>       0.00000000       0.00000000      20.00000000 </v>
   </varray>
   <i name="volume">  14473.40241070 </i>
   <varray name="rec_basis" >
    <v>       0.03458757       0.01997293       0.00000000 </v>
    <v>      -0.00000267       0.03995053       0.00000000 </v>
    <v>       0.00000000       0.00000000       0.05000000 </v>
   </varray>
  </crystal>
  <varray name="positions" >
   <v>      -0.38609387       0.29642726       0.48222570 </v>
   <v>      -0.36836317       0.34925641       0.48330470 </v>
   <v>      -0.34706324       0.28390005       0.48241393 </v>
   <v>      -0.40746770       0.36383806       0.48133028 </v>
   <v>      -0.36180645       0.23012326       0.47958898 </v>
   <v>      -0.29425229       0.31900854       0.48249808 </v>
   <v>      -0.31682167       0.38835426       0.48339135 </v>
   <v>      -0.41934924       0.21176581      -0.44734382 </v>
   <v>      -0.28176752       0.37056906       0.48352110 </v>
   <v>      -0.40088245       0.19705253      -0.48338575 </v>
   <v>      -0.40177741       0.40245847      -0.48100314 </v>
   <v>      -0.36867961       0.42080573      -0.44484985 </v>
   <v>      -0.22804605       0.40964478       0.48181691 </v>
   <v>      -0.42291225       0.13932894      -0.48762527 </v>
   <v>      -0.48141709       0.37559040       0.43129128 </v>
   <v>       0.49825125       0.14631647      -0.40321617 </v>
   <v>      -0.21004756       0.36911972      -0.44659718 </v>
   <v>      -0.43782460       0.42406855      -0.48478776 </v>
   <v>      -0.37454137       0.14414825       0.42838342 </v>
   <v>      -0.19518030       0.40298875      -0.48159574 </v>
   <v>      -0.44934299       0.15112923      -0.35236905 </v>
   <v>      -0.40585070       0.11743957       0.46289781 </v>
   <v>      -0.47694496       0.40679097       0.46591831 </v>
   <v>      -0.48252359       0.12405446      -0.38511042 </v>
   <v>      -0.46342042       0.10374810      -0.44202123 </v>
   <v>      -0.39879597       0.45092786      -0.34986813 </v>
   <v>      -0.43299066       0.46447409      -0.43910193 </v>
   <v>      -0.35190430      -0.49641502      -0.40101109 </v>
   <v>       0.48840034       0.08984449      -0.35571045 </v>
   <v>      -0.39328965       0.48394416      -0.38250713 </v>
   <v>      -0.42909450       0.06176526       0.45715739 </v>
   <v>      -0.13750446       0.43889151      -0.48527459 </v>
   <v>      -0.48602671       0.05104500      -0.44714013 </v>
   <v>       0.49038501       0.42976238       0.46039134 </v>
   <v>      -0.14244188       0.48378666       0.43237687 </v>
   <v>      -0.14413905       0.35137270      -0.40494808 </v>
   <v>      -0.14945263       0.39736885      -0.35151317 </v>
   <v>      -0.47044301       0.02966576      -0.49633253 </v>
   <v>       0.44392476       0.38183910       0.37559117 </v>
   <v>      -0.11569404       0.47875776       0.46634017 </v>
   <v>      -0.46333620       0.48678493      -0.44403842 </v>
   <v>      -0.38136259       0.06312088       0.37219128 </v>
   <v>      -0.12215090       0.39237985      -0.38517017 </v>
   <v>       0.45006638       0.41380044       0.40989848 </v>
   <v>      -0.39863300      -0.48720468      -0.35289126 </v>
   <v>      -0.10192735       0.43320976      -0.44051025 </v>
   <v>      -0.41327606       0.03733847       0.40658764 </v>
   <v>       0.49957784       0.47108280      -0.49307267 </v>
   <v>      -0.08793251       0.39695450      -0.35628611 </v>
   <v>      -0.49691525      -0.02807290       0.49766088 </v>
   <v>      -0.06006569      -0.48855500       0.46085297 </v>
   <v>      -0.04927162       0.46371213      -0.44525813 </v>
   <v>      -0.43778603      -0.01694569       0.40137565 </v>
   <v>       0.42033772       0.43833262       0.40458546 </v>
   <v>       0.46827260       0.49750765      -0.49909135 </v>
   <v>      -0.06157134      -0.44096600       0.37740101 </v>
   <v>       0.46297478      -0.05851565      -0.45907388 </v>
   <v>      -0.02793775      -0.49840843      -0.49339927 </v>
   <v>      -0.48008917      -0.05070396       0.44609863 </v>
   <v>      -0.03573548      -0.44754772       0.41116259 </v>
   <v>       0.38981200       0.42644046       0.36589356 </v>
   <v>       0.42896198       0.48073817       0.44917775 </v>
   <v>      -0.42587898      -0.03559899       0.36271482 </v>
   <v>       0.47784843      -0.46239260      -0.45585229 </v>
   <v>       0.43832536      -0.11089782      -0.46576327 </v>
   <v>       0.49300426      -0.10685887       0.44101921 </v>
   <v>       0.02977904      -0.46690892      -0.49926735 </v>
   <v>       0.01851942      -0.41771910       0.40591044 </v>
   <v>       0.40003317      -0.49207712       0.44363683 </v>
   <v>       0.45040740      -0.43747766      -0.46294881 </v>
   <v>       0.40592045      -0.13472901      -0.43080958 </v>
   <v>       0.45148288      -0.13782832       0.48466681 </v>
   <v>      -0.49525644      -0.12575634       0.40238212 </v>
   <v>       0.05231741      -0.42686746       0.44982214 </v>
   <v>       0.06027902      -0.47699461      -0.45664284 </v>
   <v>       0.36961373       0.49632970       0.40474354 </v>
   <v>       0.03712617      -0.38664958       0.36784697 </v>
   <v>       0.41069298      -0.45038199       0.48703145 </v>
   <v>       0.45892254      -0.40509799      -0.42797049 </v>
   <v>       0.42258240      -0.19594732       0.47974648 </v>
   <v>       0.10843290      -0.39774224       0.44443059 </v>
   <v>       0.11264926      -0.44927210      -0.46352555 </v>
   <v>       0.38183362      -0.42119664       0.48136087 </v>
   <v>       0.43769155      -0.21388501       0.44316134 </v>
   <v>       0.38124054      -0.22504618      -0.48415094 </v>
   <v>       0.12725517      -0.36679343       0.40613797 </v>
   <v>       0.13947584      -0.40885303       0.48723308 </v>
   <v>       0.13652017      -0.45815141      -0.42903019 </v>
   <v>       0.34877677      -0.43644446       0.44478690 </v>
   <v>       0.39432071      -0.37947679      -0.48316909 </v>
   <v>       0.35746917      -0.28037046      -0.48713270 </v>
   <v>       0.19754047      -0.37981845       0.48166415 </v>
   <v>       0.36277431      -0.35573711      -0.48675472 </v>
   <v>       0.30367853      -0.30763907      -0.48672942 </v>
   <v>       0.38931098      -0.30193727      -0.48674506 </v>
   <v>       0.21534827      -0.34635664       0.44563898 </v>
   <v>       0.22677837      -0.39263651      -0.48340834 </v>
   <v>       0.30935829      -0.38761744      -0.48653619 </v>
   <v>       0.28209448      -0.36107462      -0.48684312 </v>
  </varray>
 </structure>
 <varray name="primitive_index" >
  <v type="int" >        1 </v>
  <v type="int" >       20 </v>
  <v type="int" >       19 </v>
  <v type="int" >        6 </v>
  <v type="int" >        4 </v>
  <v type="int" >        3 </v>
  <v type="int" >        2 </v>
  <v type="int" >       84 </v>
  <v type="int" >       21 </v>
  <v type="int" >       42 </v>
  <v type="int" >       30 </v>
  <v type="int" >       74 </v>
  <v type="int" >        5 </v>
  <v type="int" >       37 </v>
  <v type="int" >       85 </v>
  <v type="int" >       82 </v>
  <v type="int" >       79 </v>
  <v type="int" >       25 </v>
  <v type="int" >       95 </v>
  <v type="int" >       36 </v>
  <v type="int" >       81 </v>
  <v type="int" >       62 </v>
  <v type="int" >       44 </v>
  <v type="int" >       41 </v>
  <v type="int" >       38 </v>
  <v type="int" >       71 </v>
  <v type="int" >       26 </v>
  <v type="int" >       72 </v>
  <v type="int" >       83 </v>
  <v type="int" >       29 </v>
  <v type="int" >       61 </v>
  <v type="int" >       31 </v>
  <v type="int" >       17 </v>
  <v type="int" >       43 </v>
  <v type="int" >       90 </v>
  <v type="int" >       77 </v>
  <v type="int" >       76 </v>
  <v type="int" >       39 </v>
  <v type="int" >       87 </v>
  <v type="int" >       53 </v>
  <v type="int" >       13 </v>
  <v type="int" >       97 </v>
  <v type="int" >       35 </v>
  <v type="int" >       50 </v>
  <v type="int" >       73 </v>
  <v type="int" >       32 </v>
  <v type="int" >       68 </v>
  <v type="int" >       27 </v>
  <v type="int" >       78 </v>
  <v type="int" >       63 </v>
  <v type="int" >       52 </v>
  <v type="int" >       15 </v>
  <v type="int" >       67 </v>
  <v type="int" >       49 </v>
  <v type="int" >       45 </v>
  <v type="int" >       92 </v>
  <v type="int" >       18 </v>
  <v type="int" >       33 </v>
  <v type="int" >       66 </v>
  <v type="int" >       59 </v>
  <v type="int" >       86 </v>
  <v type="int" >       48 </v>
  <v type="int" >       96 </v>
  <v type="int" >       14 </v>
  <v type="int" >       40 </v>
  <v type="int" >       65 </v>
  <v type="int" >       54 </v>
  <v type="int" >       58 </v>
  <v type="int" >       47 </v>
  <v type="int" >       28 </v>
  <v type="int" >       80 </v>
  <v type="int" >       64 </v>
  <v type="int" >       98 </v>
  <v type="int" >       57 </v>
  <v type="int" >       16 </v>
  <v type="int" >       88 </v>
  <v type="int" >       91 </v>
  <v type="int" >       46 </v>
  <v type="int" >       70 </v>
  <v type="int" >       69 </v>
  <v type="int" >       56 </v>
  <v type="int" >       34 </v>
  <v type="int" >       51 </v>
  <v type="int" >       99 </v>
  <v type="int" >       10 </v>
  <v type="int" >       93 </v>
  <v type="int" >       55 </v>
  <v type="int" >       75 </v>
  <v type="int" >       89 </v>
  <v type="int" >       12 </v>
  <v type="int" >       22 </v>
  <v type="int" >       60 </v>
  <v type="int" >       23 </v>
  <v type="int" >        9 </v>
  <v type="int" >        7 </v>
  <v type="int" >       94 </v>
  <v type="int" >       11 </v>
  <v type="int" >        8 </v>
  <v type="int" >       24 </v>
 </varray>
 <kpoints>
  <generation param="listgenerated">
   <i name="divisions" type="int">      20 </i>
   <v>       0.00000000       0.00000000       0.00000000 </v>
   <v>       0.50000000       0.00000000       0.00000000 </v>
   <v>       0.33333333       0.33333333       0.00000000 </v>
   <v>       0.00000000       0.00000000       0.00000000 </v>
  </generation>
  <varray name="kpointlist" >
   <v>       0.00000000       0.00000000       0.00000000 </v>
   <v>       0.02631579       0.00000000       0.00000000 </v>
   <v>       0.05263158       0.00000000       0.00000000 </v>
   <v>       0.07894737       0.00000000       0.00000000 </v>
   <v>       0.10526316       0.00000000       0.00000000 </v>
   <v>       0.13157895       0.00000000       0.00000000 </v>
   <v>       0.15789474       0.00000000       0.00000000 </v>
   <v>       0.18421053       0.00000000       0.00000000 </v>
   <v>       0.21052632       0.00000000       0.00000000 </v>
   <v>       0.23684211       0.00000000       0.00000000 </v>
   <v>       0.26315789       0.00000000       0.00000000 </v>
   <v>       0.28947368       0.00000000       0.00000000 </v>
   <v>       0.31578947       0.00000000       0.00000000 </v>
   <v>       0.34210526       0.00000000       0.00000000 </v>
   <v>       0.36842105       0.00000000       0.00000000 </v>
   <v>       0.39473684       0.00000000       0.00000000 </v>
   <v>       0.42105263       0.00000000       0.00000000 </v>
   <v>       0.44736842       0.00000000       0.00000000 </v>
   <v>       0.47368421       0.00000000       0.00000000 </v>
   <v>       0.50000000       0.00000000       0.00000000 </v>
   <v>       0.50000000       0.00000000       0.00000000 </v>
   <v>       0.49122807       0.01754386       0.00000000 </v>
   <v>       0.48245614       0.03508772       0.00000000 </v>
   <v>       0.47368421       0.05263158       0.00000000 </v>
   <v>       0.46491228       0.07017544       0.00000000 </v>
   <v>       0.45614035       0.08771930       0.00000000 </v>
   <v>       0.44736842       0.10526316       0.00000000 </v>
   <v>       0.43859649       0.12280702       0.00000000 </v>
   <v>       0.42982456       0.14035088       0.00000000 </v>
   <v>       0.42105263       0.15789474       0.00000000 </v>
   <v>       0.41228070       0.17543860       0.00000000 </v>
   <v>       0.40350877       0.19298246       0.00000000 </v>
   <v>       0.39473684       0.21052632       0.00000000 </v>
   <v>       0.38596491       0.22807018       0.00000000 </v>
   <v>       0.37719298       0.24561404       0.00000000 </v>
   <v>       0.36842105       0.26315789       0.00000000 </v>
   <v>       0.35964912       0.28070175       0.00000000 </v>
   <v>       0.35087719       0.29824561       0.00000000 </v>
   <v>       0.34210526       0.31578947       0.00000000 </v>
   <v>       0.33333333       0.33333333       0.00000000 </v>
   <v>       0.33333333       0.33333333       0.00000000 </v>
   <v>       0.31578947       0.31578947       0.00000000 </v>
   <v>       0.29824561       0.29824561       0.00000000 </v>
   <v>       0.28070175       0.28070175       0.00000000 </v>
   <v>       0.26315789       0.26315789       0.00000000 </v>
   <v>       0.24561404       0.24561404       0.00000000 </v>
   <v>       0.22807018       0.22807018       0.00000000 </v>
   <v>       0.21052632       0.21052632       0.00000000 </v>
   <v>       0.19298246       0.19298246       0.00000000 </v>
   <v>       0.17543860       0.17543860       0.00000000 </v>
   <v>       0.15789474       0.15789474       0.00000000 </v>
   <v>       0.14035088       0.14035088       0.00000000 </v>
   <v>       0.12280702       0.12280702       0.00000000 </v>
   <v>       0.10526316       0.10526316       0.00000000 </v>
   <v>       0.08771930       0.08771930       0.00000000 </v>
   <v>       0.07017544       0.07017544       0.00000000 </v>
   <v>       0.05263158       0.05263158       0.00000000 </v>
   <v>       0.03508772       0.03508772       0.00000000 </v>
   <v>       0.01754386       0.01754386       0.00000000 </v>
   <v>       0.00000000       0.00000000       0.00000000 </v>
  </varray>
  <varray name="weights" >
   <v>       0.01666667 </v>
   <v>       0.01666667 </v>
   <v>       0.01666667 </v>
   <v>       0.01666667 </v>
   <v>       0.01666667 </v>
   <v>       0.01666667 </v>
   <v>       0.01666667 </v>
   <v>       0.01666667 </v>
   <v>       0.01666667 </v>
   <v>       0.01666667 </v>
   <v>       0.01666667 </v>
   <v>       0.01666667 </v>
   <v>       0.01666667 </v>
   <v>       0.01666667 </v>
   <v>       0.01666667 </v>
   <v>       0.01666667 </v>
   <v>       0.01666667 </v>
   <v>       0.01666667 </v>
   <v>       0.01666667 </v>
   <v>       0.01666667 </v>
   <v>       0.01666667 </v>
   <v>       0.01666667 </v>
   <v>       0.01666667 </v>
   <v>       0.01666667 </v>
   <v>       0.01666667 </v>
   <v>       0.01666667 </v>
   <v>       0.01666667 </v>
   <v>       0.01666667 </v>
   <v>       0.01666667 </v>
   <v>       0.01666667 </v>
   <v>       0.01666667 </v>
   <v>       0.01666667 </v>
   <v>       0.01666667 </v>
   <v>       0.01666667 </v>
   <v>       0.01666667 </v>
   <v>       0.01666667 </v>
   <v>       0.01666667 </v>
   <v>       0.01666667 </v>
   <v>       0.01666667 </v>
   <v>       0.01666667 </v>
   <v>       0.01666667 </v>
   <v>       0.01666667 </v>
   <v>       0.01666667 </v>
   <v>       0.01666667 </v>
   <v>       0.01666667 </v>
   <v>       0.01666667 </v>
   <v>       0.01666667 </v>
   <v>       0.01666667 </v>
   <v>       0.01666667 </v>
   <v>       0.01666667 </v>
   <v>       0.01666667 </v>
   <v>       0.01666667 </v>
   <v>       0.01666667 </v>
   <v>       0.01666667 </v>
   <v>       0.01666667 </v>
   <v>       0.01666667 </v>
   <v>       0.01666667 </v>
   <v>       0.01666667 </v>
   <v>       0.01666667 </v>
   <v>       0.01666667 </v>
  </varray>
 </kpoints>
 <parameters>
  <separator name="general" >
   <i type="string" name="SYSTEM">Simulation for cell shape cell volume r</i>
   <i type="logical" name="LCOMPAT"> F  </i>
  </separator>
  <separator name="electronic" >
   <i type="string" name="PREC">high</i>
   <i name="ENMAX">    500.00000000</i>
   <i name="ENAUG">    644.87300000</i>
   <i name="EDIFF">      0.00001000</i>
   <i type="int" name="IALGO">    38</i>
   <i type="int" name="IWAVPR">    10</i>
   <i type="int" name="NBANDS">   224</i>
   <i name="NELECT">    324.00000000</i>
   <i type="int" name="TURBO">     0</i>
   <i type="int" name="IRESTART">     0</i>
   <i type="int" name="NREBOOT">     0</i>
   <i type="int" name="NMIN">     0</i>
   <i name="EREF">      0.00000000</i>
   <separator name="electronic smearing" >
    <i type="int" name="ISMEAR">     0</i>
    <i name="SIGMA">      0.01000000</i>
    <i name="KSPACING">      0.50000000</i>
    <i type="logical" name="KGAMMA"> T  </i>
   </separator>
   <separator name="electronic projectors" >
    <i type="logical" name="LREAL"> T  </i>
    <v name="ROPT">     -0.00040000     -0.00040000     -0.00040000</v>
    <i type="int" name="LMAXPAW">  -100</i>
    <i type="int" name="LMAXMIX">     2</i>
    <i type="logical" name="NLSPLINE"> F  </i>
   </separator>
   <separator name="electronic startup" >
    <i type="int" name="ISTART">     1</i>
    <i type="int" name="ICHARG">    11</i>
    <i type="int" name="INIWAV">     1</i>
   </separator>
   <separator name="electronic spin" >
    <i type="int" name="ISPIN">     1</i>
    <i type="logical" name="LNONCOLLINEAR"> F  </i>
    <v name="MAGMOM">      1.00000000      1.00000000      1.00000000      1.00000000      1.00000000      1.00000000      1.00000000      1.00000000      1.00000000      1.00000000      1.00000000      1.00000000      1.00000000      1.00000000      1.00000000      1.00000000      1.00000000      1.00000000      1.00000000      1.00000000
      1.00000000      1.00000000      1.00000000      1.00000000      1.00000000      1.00000000      1.00000000      1.00000000      1.00000000      1.00000000      1.00000000      1.00000000      1.00000000      1.00000000      1.00000000      1.00000000      1.00000000      1.00000000      1.00000000      1.00000000
      1.00000000      1.00000000      1.00000000      1.00000000      1.00000000      1.00000000      1.00000000      1.00000000      1.00000000      1.00000000      1.00000000      1.00000000      1.00000000      1.00000000      1.00000000      1.00000000      1.00000000      1.00000000      1.00000000      1.00000000
      1.00000000      1.00000000      1.00000000      1.00000000      1.00000000      1.00000000      1.00000000      1.00000000      1.00000000      1.00000000      1.00000000      1.00000000      1.00000000      1.00000000      1.00000000      1.00000000      1.00000000      1.00000000      1.00000000      1.00000000
      1.00000000      1.00000000      1.00000000      1.00000000      1.00000000      1.00000000      1.00000000      1.00000000      1.00000000      1.00000000      1.00000000      1.00000000      1.00000000      1.00000000      1.00000000      1.00000000      1.00000000      1.00000000      1.00000000</v>
    <i name="NUPDOWN">     -1.00000000</i>
    <i type="logical" name="LSORBIT"> F  </i>
    <v name="SAXIS">      0.00000000      0.00000000      1.00000000</v>
    <i type="logical" name="LSPIRAL"> F  </i>
    <v name="QSPIRAL">      0.00000000      0.00000000      0.00000000</v>
    <i type="logical" name="LZEROZ"> F  </i>
   </separator>
   <separator name="electronic exchange-correlation" >
    <i type="logical" name="LASPH"> F  </i>
    <i type="logical" name="LMETAGGA"> F  </i>
   </separator>
   <separator name="electronic convergence" >
    <i type="int" name="NELM">   200</i>
    <i type="int" name="NELMDL">     0</i>
    <i type="int" name="NELMIN">     2</i>
    <i name="ENINI">    500.00000000</i>
    <separator name="electronic convergence detail" >
     <i type="logical" name="LDIAG"> T  </i>
     <i type="logical" name="LSUBROT"> F  </i>
     <i name="WEIMIN">      0.00000000</i>
     <i name="EBREAK">      0.00000001</i>
     <i name="DEPER">      0.30000000</i>
     <i type="int" name="NRMM">     4</i>
     <i name="TIME">      0.40000000</i>
    </separator>
   </separator>
   <separator name="electronic mixer" >
    <i name="AMIX">      0.40000000</i>
    <i name="BMIX">      1.00000000</i>
    <i name="AMIN">      0.10000000</i>
    <i name="AMIX_MAG">      1.60000000</i>
    <i name="BMIX_MAG">      1.00000000</i>
    <separator name="electronic mixer details" >
     <i type="int" name="IMIX">     4</i>
     <i type="logical" name="MIXFIRST"> F  </i>
     <i type="int" name="MAXMIX">   -45</i>
     <i name="WC">    100.00000000</i>
     <i type="int" name="INIMIX">     1</i>
     <i type="int" name="MIXPRE">     1</i>
     <i type="int" name="MREMOVE">     5</i>
    </separator>
   </separator>
   <separator name="electronic dipolcorrection" >
    <i type="logical" name="LDIPOL"> F  </i>
    <i type="logical" name="LMONO"> F  </i>
    <i type="int" name="IDIPOL">     0</i>
    <i name="EPSILON">      1.00000000</i>
    <v name="DIPOL">   -100.00000000   -100.00000000   -100.00000000</v>
    <i name="EFIELD">      0.00000000</i>
   </separator>
  </separator>
  <separator name="grids" >
   <i type="int" name="NGX">   216</i>
   <i type="int" name="NGY">   216</i>
   <i type="int" name="NGZ">   150</i>
   <i type="int" name="NGXF">   320</i>
   <i type="int" name="NGYF">   320</i>
   <i type="int" name="NGZF">   224</i>
   <i type="logical" name="ADDGRID"> F  </i>
  </separator>
  <separator name="ionic" >
   <i type="int" name="NSW">     0</i>
   <i type="int" name="IBRION">    -1</i>
   <i type="int" name="MDALGO">     0</i>
   <i type="int" name="ISIF">     2</i>
   <i name="PSTRESS">      0.00000000</i>
   <i name="EDIFFG">     -0.01000000</i>
   <i type="int" name="NFREE">     0</i>
   <i name="POTIM">      0.30000000</i>
   <i name="SMASS">     -3.00000000</i>
   <i name="SCALEE">      1.00000000</i>
  </separator>
  <separator name="ionic md" >
   <i name="TEBEG">      0.00010000</i>
   <i name="TEEND">      0.00010000</i>
   <i type="int" name="NBLOCK">     1</i>
   <i type="int" name="KBLOCK">     1</i>
   <i type="int" name="NPACO">   256</i>
   <i name="APACO">     16.00000000</i>
  </separator>
  <separator name="symmetry" >
   <i type="int" name="ISYM">     2</i>
   <i name="SYMPREC">      0.00001000</i>
  </separator>
  <separator name="dos" >
   <i type="int" name="LORBIT">     0</i>
   <v name="RWIGS">     -1.00000000     -1.00000000     -1.00000000</v>
   <i type="int" name="NEDOS">   301</i>
   <i name="EMIN">     10.00000000</i>
   <i name="EMAX">    -10.00000000</i>
   <i name="EFERMI">      0.00000000</i>
  </separator>
  <separator name="writing" >
   <i type="int" name="NWRITE">     0</i>
   <i type="logical" name="LWAVE"> F  </i>
   <i type="logical" name="LDOWNSAMPLE"> F  </i>
   <i type="logical" name="LCHARG"> F  </i>
   <i type="logical" name="LPARD"> F  </i>
   <i type="logical" name="LVTOT"> F  </i>
   <i type="logical" name="LVHAR"> F  </i>
   <i type="logical" name="LELF"> F  </i>
   <i type="logical" name="LOPTICS"> F  </i>
   <v name="STM">      0.00000000      0.00000000      0.00000000      0.00000000      0.00000000      0.00000000      0.00000000</v>
  </separator>
  <separator name="performance" >
   <i type="int" name="NPAR">    16</i>
   <i type="int" name="NSIM">     4</i>
   <i type="int" name="NBLK">    -1</i>
   <i type="logical" name="LPLANE"> T  </i>
   <i type="logical" name="LSCALAPACK"> T  </i>
   <i type="logical" name="LSCAAWARE"> F  </i>
   <i type="logical" name="LSCALU"> F  </i>
   <i type="logical" name="LASYNC"> F  </i>
   <i type="logical" name="LORBITALREAL"> F  </i>
  </separator>
  <separator name="miscellaneous" >
   <i type="int" name="IDIOT">     3</i>
   <i type="int" name="ISPECIAL">     0</i>
   <i type="logical" name="LMUSIC"> F  </i>
   <v name="POMASS">     14.00100000     12.01100000      1.00000000</v>
   <v name="DARWINR">      0.00000000      0.00000000      0.00000000</v>
   <v name="DARWINV">      1.00000000      1.00000000      1.00000000</v>
   <i type="logical" name="LCORR"> T  </i>
  </separator>
  <i type="logical" name="GGA_COMPAT"> T  </i>
  <i type="logical" name="LBERRY"> F  </i>
  <i type="int" name="ICORELEVEL">     0</i>
  <i type="logical" name="LDAU"> F  </i>
  <i type="int" name="I_CONSTRAINED_M">     0</i>
  <separator name="electronic exchange-correlation" >
   <i type="string" name="GGA">PE</i>
   <i type="int" name="VOSKOWN">     0</i>
   <i type="logical" name="LHFCALC"> F  </i>
   <i type="string" name="PRECFOCK"></i>
   <i type="logical" name="LSYMGRAD"> F  </i>
   <i type="logical" name="LHFONE"> F  </i>
   <i type="logical" name="LRHFCALC"> F  </i>
   <i type="logical" name="LTHOMAS"> F  </i>
   <i type="logical" name="LMODELHF"> F  </i>
   <i name="ENCUT4O">     -1.00000000</i>
   <i type="int" name="EXXOEP">     0</i>
   <i type="int" name="FOURORBIT">     0</i>
   <i name="AEXX">      0.00000000</i>
   <i name="HFALPHA">      0.00000000</i>
   <i name="MCALPHA">      0.00000000</i>
   <i name="ALDAX">      1.00000000</i>
   <i name="AGGAX">      1.00000000</i>
   <i name="ALDAC">      1.00000000</i>
   <i name="AGGAC">      1.00000000</i>
   <i type="int" name="NKREDX">     1</i>
   <i type="int" name="NKREDY">     1</i>
   <i type="int" name="NKREDZ">     1</i>
   <i type="logical" name="SHIFTRED"> F  </i>
   <i type="logical" name="ODDONLY"> F  </i>
   <i type="logical" name="EVENONLY"> F  </i>
   <i type="int" name="LMAXFOCK">     0</i>
   <i type="int" name="NMAXFOCKAE">     0</i>
   <i type="logical" name="LFOCKAEDFT"> F  </i>
   <i name="HFSCREEN">      0.00000000</i>
   <i name="HFSCREENC">      0.00000000</i>
   <i type="int" name="NBANDSGWLOW">     0</i>
  </separator>
  <separator name="vdW DFT" >
   <i type="logical" name="LUSE_VDW"> F  </i>
   <i name="Zab_VDW">     -0.84910000</i>
   <i name="PARAM1">      0.12340000</i>
   <i name="PARAM2">      1.00000000</i>
   <i name="PARAM3">      0.00000000</i>
  </separator>
  <separator name="model GW" >
   <i type="int" name="MODEL_GW">     0</i>
   <i name="MODEL_EPS0">     87.71759037</i>
   <i name="MODEL_ALPHA">      1.00000000</i>
  </separator>
  <separator name="linear response parameters" >
   <i type="logical" name="LEPSILON"> F  </i>
   <i type="logical" name="LRPA"> F  </i>
   <i type="logical" name="LNABLA"> F  </i>
   <i type="logical" name="LVEL"> F  </i>
   <i type="int" name="KINTER">     0</i>
   <i name="CSHIFT">      0.10000000</i>
   <i name="OMEGAMAX">     -1.00000000</i>
   <i name="DEG_THRESHOLD">      0.00200000</i>
   <i name="RTIME">     -0.10000000</i>
   <i name="WPLASMAI">      0.00000000</i>
   <v name="DFIELD">      0.00000000      0.00000000      0.00000000</v>
   <v name="WPLASMA">      0.00000000      0.00000000      0.00000000      0.00000000      0.00000000      0.00000000      0.00000000      0.00000000      0.00000000</v>
  </separator>
  <separator name="orbital magnetization" >
   <i type="logical" name="NUCIND"> F  </i>
   <v name="MAGPOS">      0.00000000      0.00000000      0.00000000</v>
   <i type="logical" name="LNICSALL"> T  </i>
   <i type="logical" name="ORBITALMAG"> F  </i>
   <i type="logical" name="LMAGBLOCH"> F  </i>
   <i type="logical" name="LCHIMAG"> F  </i>
   <i type="logical" name="LGAUGE"> T  </i>
   <i type="int" name="MAGATOM">     0</i>
   <v name="MAGDIPOL">      0.00000000      0.00000000      0.00000000</v>
   <v name="AVECCONST">      0.00000000      0.00000000      0.00000000</v>
  </separator>
  <separator name="response functions" >
   <i type="logical" name="LADDER"> F  </i>
   <i type="logical" name="LRPAFORCE"> F  </i>
   <i type="logical" name="LFXC"> F  </i>
   <i type="logical" name="LHARTREE"> T  </i>
   <i type="int" name="IBSE">     0</i>
   <v type="int" name="KPOINT">    -1     0     0     0</v>
   <i type="logical" name="LTCTE"> F  </i>
   <i type="logical" name="LTETE"> F  </i>
   <i type="logical" name="LTRIPLET"> F  </i>
   <i type="logical" name="LFXCEPS"> F  </i>
   <i type="logical" name="LFXHEG"> F  </i>
   <i type="int" name="NATURALO">     2</i>
   <i type="logical" name="L2ORDER"> F  </i>
   <i type="logical" name="LMP2LT"> F  </i>
   <i type="logical" name="LUSEW"> F  </i>
   <i name="ENCUTGW">     -2.00000000</i>
   <i name="ENCUTGWSOFT">     -2.00000000</i>
   <i name="ENCUTLF">     -1.00000000</i>
   <i type="int" name="LMAXMP2">    -1</i>
   <i name="SCISSOR">      0.00000000</i>
   <i type="int" name="NOMEGA">     0</i>
   <i type="int" name="NOMEGAR">     0</i>
   <i type="int" name="NBANDSGW">    -1</i>
   <i type="int" name="NBANDSO">    -1</i>
   <i type="int" name="NBANDSV">    -1</i>
   <i type="int" name="NELM">   200</i>
   <i type="int" name="NELMHF">     1</i>
   <i type="int" name="DIM">     3</i>
   <i type="int" name="ANTIRES">     0</i>
   <i name="OMEGAMAX">    -30.00000000</i>
   <i name="OMEGAMIN">    -30.00000000</i>
   <i name="OMEGATL">   -200.00000000</i>
   <i type="int" name="OMEGAGRID">   140</i>
   <i name="CSHIFT">     -0.10000000</i>
   <i type="logical" name="SELFENERGY"> F  </i>
   <i type="logical" name="LSPECTRAL"> F  </i>
   <i type="logical" name="LSPECTRALGW"> F  </i>
   <i type="logical" name="LSINGLES"> F  </i>
   <i type="logical" name="LFERMIGW"> F  </i>
   <i type="logical" name="ODDONLYGW"> F  </i>
   <i type="logical" name="EVENONLYGW"> F  </i>
   <i type="int" name="NKREDLFX">     1</i>
   <i type="int" name="NKREDLFY">     1</i>
   <i type="int" name="NKREDLFZ">     1</i>
   <i type="int" name="MAXMEM">  2800</i>
   <i type="int" name="TELESCOPE">     0</i>
   <i type="int" name="TAUPAR">     1</i>
   <i type="int" name="OMEGAPAR">    -1</i>
   <i name="LAMBDA">      1.00000000</i>
  </separator>
  <separator name="External order field" >
   <i name="OFIELD_KAPPA">      0.00000000</i>
   <v name="OFIELD_K">      0.00000000      0.00000000      0.00000000</v>
   <i name="OFIELD_Q6_NEAR">      0.00000000</i>
   <i name="OFIELD_Q6_FAR">      0.00000000</i>
   <i name="OFIELD_A">      0.00000000</i>
  </separator>
  <separator name="solvation model" >
   <i type="logical" name="LSOL"> F  </i>
  </separator>
 </parameters>
 <atominfo>
  <atoms>      99 </atoms>
  <types>       3 </types>
  <array name="atoms" >
   <dimension dim="1">ion</dimension>
   <field type="string">element</field>
   <field type="int">atomtype</field>
   <set>
    <rc><c>N </c><c>   1</c></rc>
    <rc><c>N </c><c>   1</c></rc>
    <rc><c>N </c><c>   1</c></rc>
    <rc><c>N </c><c>   1</c></rc>
    <rc><c>N </c><c>   1</c></rc>
    <rc><c>N </c><c>   1</c></rc>
    <rc><c>N </c><c>   1</c></rc>
    <rc><c>N </c><c>   1</c></rc>
    <rc><c>N </c><c>   1</c></rc>
    <rc><c>N </c><c>   1</c></rc>
    <rc><c>N </c><c>   1</c></rc>
    <rc><c>N </c><c>   1</c></rc>
    <rc><c>N </c><c>   1</c></rc>
    <rc><c>N </c><c>   1</c></rc>
    <rc><c>N </c><c>   1</c></rc>
    <rc><c>N </c><c>   1</c></rc>
    <rc><c>N </c><c>   1</c></rc>
    <rc><c>N </c><c>   1</c></rc>
    <rc><c>C </c><c>   2</c></rc>
    <rc><c>C </c><c>   2</c></rc>
    <rc><c>C </c><c>   2</c></rc>
    <rc><c>C </c><c>   2</c></rc>
    <rc><c>C </c><c>   2</c></rc>
    <rc><c>C </c><c>   2</c></rc>
    <rc><c>C </c><c>   2</c></rc>
    <rc><c>C </c><c>   2</c></rc>
    <rc><c>C </c><c>   2</c></rc>
    <rc><c>C </c><c>   2</c></rc>
    <rc><c>C </c><c>   2</c></rc>
    <rc><c>C </c><c>   2</c></rc>
    <rc><c>C </c><c>   2</c></rc>
    <rc><c>C </c><c>   2</c></rc>
    <rc><c>C </c><c>   2</c></rc>
    <rc><c>C </c><c>   2</c></rc>
    <rc><c>C </c><c>   2</c></rc>
    <rc><c>C </c><c>   2</c></rc>
    <rc><c>C </c><c>   2</c></rc>
    <rc><c>C </c><c>   2</c></rc>
    <rc><c>C </c><c>   2</c></rc>
    <rc><c>C </c><c>   2</c></rc>
    <rc><c>C </c><c>   2</c></rc>
    <rc><c>C </c><c>   2</c></rc>
    <rc><c>C </c><c>   2</c></rc>
    <rc><c>C </c><c>   2</c></rc>
    <rc><c>C </c><c>   2</c></rc>
    <rc><c>C </c><c>   2</c></rc>
    <rc><c>C </c><c>   2</c></rc>
    <rc><c>C </c><c>   2</c></rc>
    <rc><c>C </c><c>   2</c></rc>
    <rc><c>C </c><c>   2</c></rc>
    <rc><c>C </c><c>   2</c></rc>
    <rc><c>C </c><c>   2</c></rc>
    <rc><c>C </c><c>   2</c></rc>
    <rc><c>C </c><c>   2</c></rc>
    <rc><c>C </c><c>   2</c></rc>
    <rc><c>C </c><c>   2</c></rc>
    <rc><c>C </c><c>   2</c></rc>
    <rc><c>C </c><c>   2</c></rc>
    <rc><c>C </c><c>   2</c></rc>
    <rc><c>C </c><c>   2</c></rc>
    <rc><c>C </c><c>   2</c></rc>
    <rc><c>C </c><c>   2</c></rc>
    <rc><c>C </c><c>   2</c></rc>
    <rc><c>C </c><c>   2</c></rc>
    <rc><c>C </c><c>   2</c></rc>
    <rc><c>C </c><c>   2</c></rc>
    <rc><c>C </c><c>   2</c></rc>
    <rc><c>C </c><c>   2</c></rc>
    <rc><c>C </c><c>   2</c></rc>
    <rc><c>H </c><c>   3</c></rc>
    <rc><c>H </c><c>   3</c></rc>
    <rc><c>H </c><c>   3</c></rc>
    <rc><c>H </c><c>   3</c></rc>
    <rc><c>H </c><c>   3</c></rc>
    <rc><c>H </c><c>   3</c></rc>
    <rc><c>H </c><c>   3</c></rc>
    <rc><c>H </c><c>   3</c></rc>
    <rc><c>H </c><c>   3</c></rc>
    <rc><c>H </c><c>   3</c></rc>
    <rc><c>H </c><c>   3</c></rc>
    <rc><c>H </c><c>   3</c></rc>
    <rc><c>H </c><c>   3</c></rc>
    <rc><c>H </c><c>   3</c></rc>
    <rc><c>H </c><c>   3</c></rc>
    <rc><c>H </c><c>   3</c></rc>
    <rc><c>H </c><c>   3</c></rc>
    <rc><c>H </c><c>   3</c></rc>
    <rc><c>H </c><c>   3</c></rc>
    <rc><c>H </c><c>   3</c></rc>
    <rc><c>H </c><c>   3</c></rc>
    <rc><c>H </c><c>   3</c></rc>
    <rc><c>H </c><c>   3</c></rc>
    <rc><c>H </c><c>   3</c></rc>
    <rc><c>H </c><c>   3</c></rc>
    <rc><c>H </c><c>   3</c></rc>
    <rc><c>H </c><c>   3</c></rc>
    <rc><c>H </c><c>   3</c></rc>
    <rc><c>H </c><c>   3</c></rc>
    <rc><c>H </c><c>   3</c></rc>
   </set>
  </array>
  <array name="atomtypes" >
   <dimension dim="1">type</dimension>
   <field type="int">atomspertype</field>
   <field type="string">element</field>
   <field>mass</field>
   <field>valence</field>
   <field type="string">pseudopotential</field>
   <set>
    <rc><c>  18</c><c>N </c><c>     14.00100000</c><c>      5.00000000</c><c>  PAW_PBE N 08Apr2002                   </c></rc>
    <rc><c>  51</c><c>C </c><c>     12.01100000</c><c>      4.00000000</c><c>  PAW_PBE C 08Apr2002                   </c></rc>
    <rc><c>  30</c><c>H </c><c>      1.00000000</c><c>      1.00000000</c><c>  PAW_PBE H 15Jun2001                   </c></rc>
   </set>
  </array>
 </atominfo>
 <structure name="initialpos" >
  <crystal>
   <varray name="basis" >
    <v>      28.91100478       0.00193079       0.00000000 </v>
    <v>     -14.45381593      25.02999182       0.00000000 </v>
    <v>       0.00000000       0.00000000      20.00000000 </v>
   </varray>
   <i name="volume">  14473.40241070 </i>
   <varray name="rec_basis" >
    <v>       0.03458757       0.01997293       0.00000000 </v>
    <v>      -0.00000267       0.03995053       0.00000000 </v>
    <v>       0.00000000       0.00000000       0.05000000 </v>
   </varray>
  </crystal>
  <varray name="positions" >
   <v>       0.61390613       0.29642726       0.48222570 </v>
   <v>       0.68317833       0.38835426       0.48339135 </v>
   <v>       0.70574771       0.31900854       0.48249808 </v>
   <v>       0.63819355       0.23012326       0.47958898 </v>
   <v>       0.77195395       0.40964478       0.48181691 </v>
   <v>       0.59253230       0.36383806       0.48133028 </v>
   <v>       0.38931098       0.69806273       0.51325494 </v>
   <v>       0.30935829       0.61238256       0.51346381 </v>
   <v>       0.30367853       0.69236093       0.51327058 </v>
   <v>       0.38124054       0.77495382       0.51584906 </v>
   <v>       0.22677837       0.60736349       0.51659166 </v>
   <v>       0.39432071       0.62052321       0.51683091 </v>
   <v>       0.53666380       0.48678493       0.55596158 </v>
   <v>       0.47784843       0.53760740       0.54414771 </v>
   <v>       0.95072838       0.46371213       0.55474187 </v>
   <v>       0.06027902       0.52300539       0.54335716 </v>
   <v>       0.51397329       0.05104500       0.55285987 </v>
   <v>       0.46297478       0.94148435       0.54092612 </v>
   <v>       0.65293676       0.28390005       0.48241393 </v>
   <v>       0.63163683       0.34925641       0.48330470 </v>
   <v>       0.71823248       0.37056906       0.48352110 </v>
   <v>       0.35746917       0.71962954       0.51286730 </v>
   <v>       0.36277431       0.64426289       0.51324528 </v>
   <v>       0.28209448       0.63892538       0.51315688 </v>
   <v>       0.56217540       0.42406855       0.51521224 </v>
   <v>       0.56700934       0.46447409       0.56089807 </v>
   <v>       0.49957784       0.47108280       0.50692733 </v>
   <v>       0.45040740       0.56252234       0.53705119 </v>
   <v>       0.60671035       0.48394416       0.61749287 </v>
   <v>       0.59822259       0.40245847       0.51899686 </v>
   <v>       0.86249554       0.43889151       0.51472541 </v>
   <v>       0.89807265       0.43320976       0.55948975 </v>
   <v>       0.97206225       0.50159157       0.50660073 </v>
   <v>       0.11264926       0.55072790       0.53647445 </v>
   <v>       0.87784910       0.39237985       0.61482983 </v>
   <v>       0.80481970       0.40298875       0.51840426 </v>
   <v>       0.57708775       0.13932894       0.51237473 </v>
   <v>       0.53657958       0.10374810       0.55797877 </v>
   <v>       0.52955699       0.02966576       0.50366747 </v>
   <v>       0.43832536       0.88910218       0.53423673 </v>
   <v>       0.51747641       0.12405446       0.61488958 </v>
   <v>       0.59911755       0.19705253       0.51661425 </v>
   <v>       0.49038501       0.42976238       0.46039134 </v>
   <v>       0.52305504       0.40679097       0.46591831 </v>
   <v>       0.46827260       0.49750765       0.50090865 </v>
   <v>       0.41069298       0.54961801       0.48703145 </v>
   <v>       0.40003317       0.50792288       0.44363683 </v>
   <v>       0.42896198       0.48073817       0.44917775 </v>
   <v>       0.42033772       0.43833262       0.40458546 </v>
   <v>       0.45006638       0.41380044       0.40989848 </v>
   <v>       0.38183362       0.57880336       0.48136087 </v>
   <v>       0.93993431       0.51144500       0.46085297 </v>
   <v>       0.88430596       0.47875776       0.46634017 </v>
   <v>       0.02977904       0.53309108       0.50073265 </v>
   <v>       0.13947584       0.59114697       0.48723308 </v>
   <v>       0.10843290       0.60225776       0.44443059 </v>
   <v>       0.05231741       0.57313254       0.44982214 </v>
   <v>       0.01851942       0.58228090       0.40591044 </v>
   <v>       0.96426452       0.55245228       0.41116259 </v>
   <v>       0.19754047       0.62018155       0.48166415 </v>
   <v>       0.57090550       0.06176526       0.45715739 </v>
   <v>       0.59414930       0.11743957       0.46289781 </v>
   <v>       0.50308475       0.97192710       0.49766088 </v>
   <v>       0.45148288       0.86217168       0.48466681 </v>
   <v>       0.49300426       0.89314113       0.44101921 </v>
   <v>       0.51991083       0.94929604       0.44609863 </v>
   <v>       0.56221397       0.98305431       0.40137565 </v>
   <v>       0.58672394       0.03733847       0.40658764 </v>
   <v>       0.42258240       0.80405268       0.47974648 </v>
   <v>       0.45892254       0.59490201       0.57202951 </v>
   <v>       0.60120403       0.45092786       0.65013187 </v>
   <v>       0.64809570       0.50358498       0.59898891 </v>
   <v>       0.60136700       0.51279532       0.64710874 </v>
   <v>       0.63132039       0.42080573       0.55515015 </v>
   <v>       0.13652017       0.54184859       0.57096981 </v>
   <v>       0.85054737       0.39736885       0.64848683 </v>
   <v>       0.85586095       0.35137270       0.59505192 </v>
   <v>       0.91206749       0.39695450       0.64371389 </v>
   <v>       0.78995244       0.36911972       0.55340282 </v>
   <v>       0.40592045       0.86527099       0.56919042 </v>
   <v>       0.55065701       0.15112923       0.64763095 </v>
   <v>       0.49825125       0.14631647       0.59678383 </v>
   <v>       0.48840034       0.08984449       0.64428955 </v>
   <v>       0.58065076       0.21176581       0.55265618 </v>
   <v>       0.51858291       0.37559040       0.43129128 </v>
   <v>       0.38981200       0.42644046       0.36589356 </v>
   <v>       0.44392476       0.38183910       0.37559117 </v>
   <v>       0.36961373       0.49632970       0.40474354 </v>
   <v>       0.34877677       0.56355554       0.44478690 </v>
   <v>       0.85755812       0.48378666       0.43237687 </v>
   <v>       0.03712617       0.61335042       0.36784697 </v>
   <v>       0.93842866       0.55903400       0.37740101 </v>
   <v>       0.12725517       0.63320657       0.40613797 </v>
   <v>       0.21534827       0.65364336       0.44563898 </v>
   <v>       0.62545863       0.14414825       0.42838342 </v>
   <v>       0.57412102       0.96440101       0.36271482 </v>
   <v>       0.61863741       0.06312088       0.37219128 </v>
   <v>       0.50474356       0.87424366       0.40238212 </v>
   <v>       0.43769155       0.78611499       0.44316134 </v>
  </varray>
 </structure>
 <calculation>
  <scstep>
   <time name="dav">  293.33  296.49</time>
   <time name="total">  293.60  296.77</time>
   <energy>
    <i name="alphaZ">     33.76556038 </i>
    <i name="ewald">  38066.71781641 </i>
    <i name="hartreedc"> -48369.06576309 </i>
    <i name="XCdc">   1146.84021054 </i>
    <i name="pawpsdc">  30788.26013353 </i>
    <i name="pawaedc"> -30848.82168049 </i>
    <i name="eentropy">     -0.00000000 </i>
    <i name="bandstr">  -4172.90976380 </i>
    <i name="atom">  12640.78969193 </i>
    <i name="e_fr_energy">   -714.42379459 </i>
    <i name="e_wo_entrp">   -714.42379459 </i>
    <i name="e_0_energy">   -714.42379459 </i>
   </energy>
  </scstep>
  <scstep>
   <time name="dav">  320.59  324.00</time>
   <time name="total">  320.59  324.01</time>
   <energy>
    <i name="e_fr_energy">   -714.86254400 </i>
    <i name="e_wo_entrp">   -714.86254400 </i>
    <i name="e_0_energy">   -714.86254400 </i>
   </energy>
  </scstep>
  <scstep>
   <time name="dav">  368.53  372.39</time>
   <time name="total">  368.54  372.39</time>
   <energy>
    <i name="e_fr_energy">   -714.87614344 </i>
    <i name="e_wo_entrp">   -714.87614344 </i>
    <i name="e_0_energy">   -714.87614344 </i>
   </energy>
  </scstep>
  <scstep>
   <time name="dav">  319.49  322.85</time>
   <time name="total">  319.50  322.86</time>
   <energy>
    <i name="e_fr_energy">   -714.87629787 </i>
    <i name="e_wo_entrp">   -714.87629787 </i>
    <i name="e_0_energy">   -714.87629787 </i>
   </energy>
  </scstep>
  <scstep>
   <time name="dav">  301.21  304.45</time>
   <time name="total">  301.22  304.46</time>
   <energy>
    <i name="alphaZ">     33.76556038 </i>
    <i name="ewald">  38066.71781641 </i>
    <i name="hartreedc"> -48369.06576309 </i>
    <i name="XCdc">   1146.84021054 </i>
    <i name="pawpsdc">  30788.26013353 </i>
    <i name="pawaedc"> -30848.82168049 </i>
    <i name="eentropy">     -0.00000000 </i>
    <i name="bandstr">  -4173.36227423 </i>
    <i name="atom">  12640.78969193 </i>
    <i name="e_fr_energy">   -714.87630502 </i>
    <i name="e_wo_entrp">   -714.87630502 </i>
    <i name="e_0_energy">   -714.87630502 </i>
   </energy>
  </scstep>
  <structure>
   <crystal>
    <varray name="basis" >
     <v>      28.91100478       0.00193079       0.00000000 </v>
     <v>     -14.45381593      25.02999182       0.00000000 </v>
     <v>       0.00000000       0.00000000      20.00000000 </v>
    </varray>
    <i name="volume">  14473.40241070 </i>
    <varray name="rec_basis" >
     <v>       0.03458757       0.01997293       0.00000000 </v>
     <v>      -0.00000267       0.03995053       0.00000000 </v>
     <v>       0.00000000       0.00000000       0.05000000 </v>
    </varray>
   </crystal>
   <varray name="positions" >
    <v>       0.61390613       0.29642726       0.48222570 </v>
    <v>       0.68317833       0.38835426       0.48339135 </v>
    <v>       0.70574771       0.31900854       0.48249808 </v>
    <v>       0.63819355       0.23012326       0.47958898 </v>
    <v>       0.77195395       0.40964478       0.48181691 </v>
    <v>       0.59253230       0.36383806       0.48133028 </v>
    <v>       0.38931098       0.69806273       0.51325494 </v>
    <v>       0.30935829       0.61238256       0.51346381 </v>
    <v>       0.30367853       0.69236093       0.51327058 </v>
    <v>       0.38124054       0.77495382       0.51584906 </v>
    <v>       0.22677837       0.60736349       0.51659166 </v>
    <v>       0.39432071       0.62052321       0.51683091 </v>
    <v>       0.53666380       0.48678493       0.55596158 </v>
    <v>       0.47784843       0.53760740       0.54414771 </v>
    <v>       0.95072838       0.46371213       0.55474187 </v>
    <v>       0.06027902       0.52300539       0.54335716 </v>
    <v>       0.51397329       0.05104500       0.55285987 </v>
    <v>       0.46297478       0.94148435       0.54092612 </v>
    <v>       0.65293676       0.28390005       0.48241393 </v>
    <v>       0.63163683       0.34925641       0.48330470 </v>
    <v>       0.71823248       0.37056906       0.48352110 </v>
    <v>       0.35746917       0.71962954       0.51286730 </v>
    <v>       0.36277431       0.64426289       0.51324528 </v>
    <v>       0.28209448       0.63892538       0.51315688 </v>
    <v>       0.56217540       0.42406855       0.51521224 </v>
    <v>       0.56700934       0.46447409       0.56089807 </v>
    <v>       0.49957784       0.47108280       0.50692733 </v>
    <v>       0.45040740       0.56252234       0.53705119 </v>
    <v>       0.60671035       0.48394416       0.61749287 </v>
    <v>       0.59822259       0.40245847       0.51899686 </v>
    <v>       0.86249554       0.43889151       0.51472541 </v>
    <v>       0.89807265       0.43320976       0.55948975 </v>
    <v>       0.97206225       0.50159157       0.50660073 </v>
    <v>       0.11264926       0.55072790       0.53647445 </v>
    <v>       0.87784910       0.39237985       0.61482983 </v>
    <v>       0.80481970       0.40298875       0.51840426 </v>
    <v>       0.57708775       0.13932894       0.51237473 </v>
    <v>       0.53657958       0.10374810       0.55797877 </v>
    <v>       0.52955699       0.02966576       0.50366747 </v>
    <v>       0.43832536       0.88910218       0.53423673 </v>
    <v>       0.51747641       0.12405446       0.61488958 </v>
    <v>       0.59911755       0.19705253       0.51661425 </v>
    <v>       0.49038501       0.42976238       0.46039134 </v>
    <v>       0.52305504       0.40679097       0.46591831 </v>
    <v>       0.46827260       0.49750765       0.50090865 </v>
    <v>       0.41069298       0.54961801       0.48703145 </v>
    <v>       0.40003317       0.50792288       0.44363683 </v>
    <v>       0.42896198       0.48073817       0.44917775 </v>
    <v>       0.42033772       0.43833262       0.40458546 </v>
    <v>       0.45006638       0.41380044       0.40989848 </v>
    <v>       0.38183362       0.57880336       0.48136087 </v>
    <v>       0.93993431       0.51144500       0.46085297 </v>
    <v>       0.88430596       0.47875776       0.46634017 </v>
    <v>       0.02977904       0.53309108       0.50073265 </v>
    <v>       0.13947584       0.59114697       0.48723308 </v>
    <v>       0.10843290       0.60225776       0.44443059 </v>
    <v>       0.05231741       0.57313254       0.44982214 </v>
    <v>       0.01851942       0.58228090       0.40591044 </v>
    <v>       0.96426452       0.55245228       0.41116259 </v>
    <v>       0.19754047       0.62018155       0.48166415 </v>
    <v>       0.57090550       0.06176526       0.45715739 </v>
    <v>       0.59414930       0.11743957       0.46289781 </v>
    <v>       0.50308475       0.97192710       0.49766088 </v>
    <v>       0.45148288       0.86217168       0.48466681 </v>
    <v>       0.49300426       0.89314113       0.44101921 </v>
    <v>       0.51991083       0.94929604       0.44609863 </v>
    <v>       0.56221397       0.98305431       0.40137565 </v>
    <v>       0.58672394       0.03733847       0.40658764 </v>
    <v>       0.42258240       0.80405268       0.47974648 </v>
    <v>       0.45892254       0.59490201       0.57202951 </v>
    <v>       0.60120403       0.45092786       0.65013187 </v>
    <v>       0.64809570       0.50358498       0.59898891 </v>
    <v>       0.60136700       0.51279532       0.64710874 </v>
    <v>       0.63132039       0.42080573       0.55515015 </v>
    <v>       0.13652017       0.54184859       0.57096981 </v>
    <v>       0.85054737       0.39736885       0.64848683 </v>
    <v>       0.85586095       0.35137270       0.59505192 </v>
    <v>       0.91206749       0.39695450       0.64371389 </v>
    <v>       0.78995244       0.36911972       0.55340282 </v>
    <v>       0.40592045       0.86527099       0.56919042 </v>
    <v>       0.55065701       0.15112923       0.64763095 </v>
    <v>       0.49825125       0.14631647       0.59678383 </v>
    <v>       0.48840034       0.08984449       0.64428955 </v>
    <v>       0.58065076       0.21176581       0.55265618 </v>
    <v>       0.51858291       0.37559040       0.43129128 </v>
    <v>       0.38981200       0.42644046       0.36589356 </v>
    <v>       0.44392476       0.38183910       0.37559117 </v>
    <v>       0.36961373       0.49632970       0.40474354 </v>
    <v>       0.34877677       0.56355554       0.44478690 </v>
    <v>       0.85755812       0.48378666       0.43237687 </v>
    <v>       0.03712617       0.61335042       0.36784697 </v>
    <v>       0.93842866       0.55903400       0.37740101 </v>
    <v>       0.12725517       0.63320657       0.40613797 </v>
    <v>       0.21534827       0.65364336       0.44563898 </v>
    <v>       0.62545863       0.14414825       0.42838342 </v>
    <v>       0.57412102       0.96440101       0.36271482 </v>
    <v>       0.61863741       0.06312088       0.37219128 </v>
    <v>       0.50474356       0.87424366       0.40238212 </v>
    <v>       0.43769155       0.78611499       0.44316134 </v>
   </varray>
  </structure>
  <varray name="forces" >
   <v>       0.00235895       0.00126312       0.00057568 </v>
   <v>       0.00476548      -0.00481191       0.00066184 </v>
   <v>       0.00019795      -0.00335886      -0.00156396 </v>
   <v>      -0.00241482       0.00263727       0.00132989 </v>
   <v>      -0.00180691       0.00338115       0.00300422 </v>
   <v>       0.00101197      -0.00371006      -0.00199304 </v>
   <v>       0.00583666      -0.00308061      -0.00110300 </v>
   <v>      -0.00247570      -0.00049926       0.00156492 </v>
   <v>       0.00268140       0.00142285       0.00078999 </v>
   <v>       0.00269236      -0.00200243       0.00207526 </v>
   <v>       0.00486013      -0.00222351      -0.00424928 </v>
   <v>      -0.00222658      -0.00975124       0.00153001 </v>
   <v>      -0.00016863      -0.00195135      -0.00202551 </v>
   <v>       0.00309365       0.00006755      -0.00207473 </v>
   <v>      -0.00128077      -0.00037601       0.00033688 </v>
   <v>       0.00230588       0.00008758      -0.00320557 </v>
   <v>      -0.00275629       0.00027671       0.00217335 </v>
   <v>      -0.00395006       0.00022575      -0.00248696 </v>
   <v>      -0.00479345      -0.00210852       0.00376258 </v>
   <v>      -0.00091018      -0.00543988      -0.00091996 </v>
   <v>      -0.00009456       0.00332748      -0.00322149 </v>
   <v>      -0.00023798      -0.00210700      -0.00043260 </v>
   <v>      -0.00123084       0.00575943       0.00043076 </v>
   <v>      -0.00516826       0.00006603       0.00182945 </v>
   <v>      -0.00289727       0.00213967      -0.00373420 </v>
   <v>       0.00184074       0.00275077       0.00027030 </v>
   <v>       0.00437718      -0.00058074       0.00011460 </v>
   <v>      -0.00024257      -0.00166538      -0.00001958 </v>
   <v>      -0.00376918       0.00248073      -0.00264999 </v>
   <v>       0.00058037       0.00153150       0.00092312 </v>
   <v>      -0.00415087       0.00048350      -0.00138472 </v>
   <v>      -0.00050480       0.00116086       0.00178907 </v>
   <v>       0.00171491       0.00289817      -0.00028357 </v>
   <v>      -0.00185668      -0.00341562      -0.00157987 </v>
   <v>      -0.00006882      -0.00014440      -0.00038045 </v>
   <v>       0.00047471      -0.00157825      -0.00388377 </v>
   <v>       0.00243289      -0.00091773       0.00033461 </v>
   <v>      -0.00367364      -0.00174054       0.00203994 </v>
   <v>      -0.00116797       0.00008674      -0.00052169 </v>
   <v>      -0.00603563      -0.00357617       0.00432915 </v>
   <v>      -0.00279520      -0.00126743      -0.00117058 </v>
   <v>      -0.00325319       0.00009735       0.00302463 </v>
   <v>       0.00070226      -0.00051416       0.00102709 </v>
   <v>       0.00550321      -0.00007810       0.00423750 </v>
   <v>       0.00246200       0.00092569       0.00253245 </v>
   <v>       0.00308988      -0.00286866       0.00195164 </v>
   <v>      -0.00141282       0.00028629      -0.00155330 </v>
   <v>      -0.00196428      -0.00080000      -0.00264294 </v>
   <v>      -0.00069575       0.00021562      -0.00287583 </v>
   <v>       0.00370909      -0.00122357       0.00459051 </v>
   <v>       0.00041108       0.00045494       0.00331106 </v>
   <v>      -0.00208942       0.00225498       0.00015469 </v>
   <v>       0.00260330       0.00021959       0.00206240 </v>
   <v>      -0.00545349       0.00002433      -0.00228296 </v>
   <v>       0.00275197       0.00187108       0.00294626 </v>
   <v>       0.00045048       0.00230717      -0.00108263 </v>
   <v>       0.00109490       0.00019956       0.00110537 </v>
   <v>      -0.00206188       0.00161692       0.00205823 </v>
   <v>      -0.00163391       0.00069014       0.00131497 </v>
   <v>       0.00122347       0.00178709       0.00146390 </v>
   <v>      -0.00154112      -0.00176194      -0.00021664 </v>
   <v>      -0.00023769       0.00090698       0.00106949 </v>
   <v>      -0.00337020       0.00172006       0.00475478 </v>
   <v>       0.00194976       0.00233626       0.00060793 </v>
   <v>      -0.00357161      -0.00265361       0.00412743 </v>
   <v>       0.00447433      -0.00082562      -0.00014845 </v>
   <v>       0.00138248       0.00103593      -0.00143678 </v>
   <v>       0.00497714      -0.00166957       0.00115502 </v>
   <v>       0.00260420       0.00126517       0.00028581 </v>
   <v>      -0.00100033       0.00025298      -0.00193637 </v>
   <v>       0.00440011       0.00138134       0.00068614 </v>
   <v>       0.00285621       0.00090494      -0.00461950 </v>
   <v>       0.00136627       0.00312393      -0.00325068 </v>
   <v>       0.00093774       0.00274247       0.00073070 </v>
   <v>       0.00267067      -0.00041975      -0.00134069 </v>
   <v>       0.00200474      -0.00033382      -0.00188050 </v>
   <v>      -0.00105339       0.00304028      -0.00107028 </v>
   <v>      -0.00043346      -0.00006240      -0.00172451 </v>
   <v>       0.00147313       0.00217871       0.00365949 </v>
   <v>       0.00164712       0.00186394      -0.00197247 </v>
   <v>      -0.00602888       0.00015689       0.00080308 </v>
   <v>      -0.00051974       0.00059415      -0.00394978 </v>
   <v>      -0.00416002       0.00091803      -0.00233588 </v>
   <v>       0.00043674      -0.00002111      -0.00401354 </v>
   <v>      -0.00003433       0.00159301       0.00043232 </v>
   <v>      -0.00067141      -0.00246331       0.00054170 </v>
   <v>       0.00115145      -0.00255697      -0.00295077 </v>
   <v>      -0.00139565      -0.00254132      -0.00082617 </v>
   <v>      -0.00037855       0.00091186       0.00033785 </v>
   <v>       0.00064365       0.00183506       0.00118341 </v>
   <v>      -0.00042582       0.00437284      -0.00113776 </v>
   <v>       0.00054930       0.00224945       0.00104270 </v>
   <v>      -0.00060722       0.00252583      -0.00134211 </v>
   <v>       0.00051520      -0.00025341      -0.00129250 </v>
   <v>      -0.00204144      -0.00124337      -0.00026647 </v>
   <v>       0.00026155       0.00051453       0.00337795 </v>
   <v>      -0.00082774      -0.00176479       0.00267227 </v>
   <v>       0.00167118      -0.00002223      -0.00155067 </v>
   <v>       0.00034113      -0.00303767      -0.00052971 </v>
  </varray>
  <varray name="stress" >
   <v>       0.02426428      -0.01050393      -0.00207547 </v>
   <v>      -0.01050393      -0.00047268       0.00842392 </v>
   <v>      -0.00207547       0.00842392      -0.15140581 </v>
  </varray>
  <energy>
   <i name="e_fr_energy">   -716.59337269 </i>
   <i name="e_wo_entrp">   -716.59337269 </i>
   <i name="e_0_energy">     -0.00000000 </i>
  </energy>
  <time name="totalsc"> 1906.70 1928.21</time>
  <eigenvalues>
   <array>
    <dimension dim="1">band</dimension>
    <dimension dim="2">kpoint</dimension>
    <dimension dim="3">spin</dimension>
    <field>eigene</field>
    <field>occ</field>
    <set>
     <set comment="spin 1">
      <set comment="kpoint 1">
       <r>  -25.7005    1.0000 </r>
       <r>  -25.6741    1.0000 </r>
       <r>  -24.0008    1.0000 </r>
       <r>  -23.9987    1.0000 </r>
       <r>  -23.9495    1.0000 </r>
       <r>  -23.9457    1.0000 </r>
       <r>  -23.8995    1.0000 </r>
       <r>  -23.8203    1.0000 </r>
       <r>  -23.8187    1.0000 </r>
       <r>  -23.3681    1.0000 </r>
       <r>  -23.3091    1.0000 </r>
       <r>  -23.3078    1.0000 </r>
       <r>  -22.7565    1.0000 </r>
       <r>  -22.7105    1.0000 </r>
       <r>  -21.6686    1.0000 </r>
       <r>  -21.6637    1.0000 </r>
       <r>  -21.6430    1.0000 </r>
       <r>  -21.6395    1.0000 </r>
       <r>  -21.2124    1.0000 </r>
       <r>  -21.2122    1.0000 </r>
       <r>  -21.2117    1.0000 </r>
       <r>  -20.3046    1.0000 </r>
       <r>  -20.3038    1.0000 </r>
       <r>  -20.2984    1.0000 </r>
       <r>  -20.1669    1.0000 </r>
       <r>  -20.1641    1.0000 </r>
       <r>  -20.1468    1.0000 </r>
       <r>  -19.2742    1.0000 </r>
       <r>  -19.2723    1.0000 </r>
       <r>  -19.2249    1.0000 </r>
       <r>  -18.6784    1.0000 </r>
       <r>  -18.6775    1.0000 </r>
       <r>  -18.6433    1.0000 </r>
       <r>  -17.7041    1.0000 </r>
       <r>  -17.7006    1.0000 </r>
       <r>  -17.5862    1.0000 </r>
       <r>  -17.5836    1.0000 </r>
       <r>  -17.5536    1.0000 </r>
       <r>  -17.2256    1.0000 </r>
       <r>  -16.9307    1.0000 </r>
       <r>  -16.9262    1.0000 </r>
       <r>  -16.1579    1.0000 </r>
       <r>  -16.1042    1.0000 </r>
       <r>  -16.1020    1.0000 </r>
       <r>  -15.9626    1.0000 </r>
       <r>  -15.9209    1.0000 </r>
       <r>  -15.9193    1.0000 </r>
       <r>  -15.3211    1.0000 </r>
       <r>  -15.2399    1.0000 </r>
       <r>  -15.2393    1.0000 </r>
       <r>  -15.0978    1.0000 </r>
       <r>  -15.0954    1.0000 </r>
       <r>  -15.0175    1.0000 </r>
       <r>  -14.8980    1.0000 </r>
       <r>  -14.4808    1.0000 </r>
       <r>  -14.4782    1.0000 </r>
       <r>  -13.9034    1.0000 </r>
       <r>  -13.8167    1.0000 </r>
       <r>  -13.8118    1.0000 </r>
       <r>  -13.6892    1.0000 </r>
       <r>  -13.6076    1.0000 </r>
       <r>  -13.2595    1.0000 </r>
       <r>  -13.2579    1.0000 </r>
       <r>  -13.1143    1.0000 </r>
       <r>  -13.0078    1.0000 </r>
       <r>  -12.8527    1.0000 </r>
       <r>  -12.8507    1.0000 </r>
       <r>  -12.7884    1.0000 </r>
       <r>  -12.7757    1.0000 </r>
       <r>  -12.7729    1.0000 </r>
       <r>  -12.1775    1.0000 </r>
       <r>  -12.1746    1.0000 </r>
       <r>  -12.1562    1.0000 </r>
       <r>  -11.9374    1.0000 </r>
       <r>  -11.7724    1.0000 </r>
       <r>  -11.7704    1.0000 </r>
       <r>  -11.7373    1.0000 </r>
       <r>  -11.6107    1.0000 </r>
       <r>  -11.6086    1.0000 </r>
       <r>  -11.3929    1.0000 </r>
       <r>  -11.3643    1.0000 </r>
       <r>  -11.3600    1.0000 </r>
       <r>  -11.2900    1.0000 </r>
       <r>  -11.0968    1.0000 </r>
       <r>  -11.0934    1.0000 </r>
       <r>  -10.9308    1.0000 </r>
       <r>  -10.8726    1.0000 </r>
       <r>  -10.8698    1.0000 </r>
       <r>  -10.8398    1.0000 </r>
       <r>  -10.8371    1.0000 </r>
       <r>  -10.8238    1.0000 </r>
       <r>  -10.4151    1.0000 </r>
       <r>  -10.3346    1.0000 </r>
       <r>  -10.3332    1.0000 </r>
       <r>  -10.2956    1.0000 </r>
       <r>  -10.2204    1.0000 </r>
       <r>  -10.2184    1.0000 </r>
       <r>  -10.1263    1.0000 </r>
       <r>  -10.1104    1.0000 </r>
       <r>  -10.1066    1.0000 </r>
       <r>   -9.9556    1.0000 </r>
       <r>   -9.9219    1.0000 </r>
       <r>   -9.9207    1.0000 </r>
       <r>   -9.8850    1.0000 </r>
       <r>   -9.6410    1.0000 </r>
       <r>   -9.6401    1.0000 </r>
       <r>   -9.6393    1.0000 </r>
       <r>   -9.5966    1.0000 </r>
       <r>   -9.5961    1.0000 </r>
       <r>   -9.4975    1.0000 </r>
       <r>   -9.3622    1.0000 </r>
       <r>   -9.3568    1.0000 </r>
       <r>   -9.0453    1.0000 </r>
       <r>   -9.0361    1.0000 </r>
       <r>   -9.0339    1.0000 </r>
       <r>   -9.0008    1.0000 </r>
       <r>   -8.9978    1.0000 </r>
       <r>   -8.9800    1.0000 </r>
       <r>   -8.9633    1.0000 </r>
       <r>   -8.9623    1.0000 </r>
       <r>   -8.9133    1.0000 </r>
       <r>   -8.8306    1.0000 </r>
       <r>   -8.7200    1.0000 </r>
       <r>   -8.5860    1.0000 </r>
       <r>   -8.5833    1.0000 </r>
       <r>   -8.5424    1.0000 </r>
       <r>   -8.3698    1.0000 </r>
       <r>   -8.3693    1.0000 </r>
       <r>   -8.3580    1.0000 </r>
       <r>   -8.2536    1.0000 </r>
       <r>   -8.0488    1.0000 </r>
       <r>   -8.0459    1.0000 </r>
       <r>   -7.7514    1.0000 </r>
       <r>   -7.7444    1.0000 </r>
       <r>   -7.3350    1.0000 </r>
       <r>   -7.3267    1.0000 </r>
       <r>   -7.3248    1.0000 </r>
       <r>   -6.9498    1.0000 </r>
       <r>   -6.9443    1.0000 </r>
       <r>   -6.9319    1.0000 </r>
       <r>   -6.4207    1.0000 </r>
       <r>   -6.3701    1.0000 </r>
       <r>   -6.3673    1.0000 </r>
       <r>   -6.3552    1.0000 </r>
       <r>   -6.2328    1.0000 </r>
       <r>   -6.2293    1.0000 </r>
       <r>   -6.0518    1.0000 </r>
       <r>   -6.0495    1.0000 </r>
       <r>   -6.0024    1.0000 </r>
       <r>   -5.9670    1.0000 </r>
       <r>   -5.9648    1.0000 </r>
       <r>   -5.9212    1.0000 </r>
       <r>   -5.9203    1.0000 </r>
       <r>   -5.9171    1.0000 </r>
       <r>   -5.8843    1.0000 </r>
       <r>   -5.8823    1.0000 </r>
       <r>   -5.8540    1.0000 </r>
       <r>   -5.8483    1.0000 </r>
       <r>   -5.8469    1.0000 </r>
       <r>   -5.4490    1.0000 </r>
       <r>   -5.4443    1.0000 </r>
       <r>   -5.4431    1.0000 </r>
       <r>   -3.4480    0.0000 </r>
       <r>   -3.4441    0.0000 </r>
       <r>   -3.1869    0.0000 </r>
       <r>   -2.7662    0.0000 </r>
       <r>   -2.7592    0.0000 </r>
       <r>   -2.4318    0.0000 </r>
       <r>   -2.4244    0.0000 </r>
       <r>   -2.4235    0.0000 </r>
       <r>   -2.2805    0.0000 </r>
       <r>   -1.8194    0.0000 </r>
       <r>   -1.8176    0.0000 </r>
       <r>   -1.6294    0.0000 </r>
       <r>   -1.2507    0.0000 </r>
       <r>   -1.2464    0.0000 </r>
       <r>   -0.9779    0.0000 </r>
       <r>   -0.9688    0.0000 </r>
       <r>   -0.6323    0.0000 </r>
       <r>   -0.4417    0.0000 </r>
       <r>   -0.3621    0.0000 </r>
       <r>   -0.3584    0.0000 </r>
       <r>   -0.3548    0.0000 </r>
       <r>   -0.2782    0.0000 </r>
       <r>   -0.2417    0.0000 </r>
       <r>   -0.2340    0.0000 </r>
       <r>   -0.2258    0.0000 </r>
       <r>   -0.2229    0.0000 </r>
       <r>   -0.0053    0.0000 </r>
       <r>   -0.0048    0.0000 </r>
       <r>   -0.0031    0.0000 </r>
       <r>    0.2410    0.0000 </r>
       <r>    0.2428    0.0000 </r>
       <r>    0.2911    0.0000 </r>
       <r>    0.3393    0.0000 </r>
       <r>    0.3613    0.0000 </r>
       <r>    0.3617    0.0000 </r>
       <r>    0.4887    0.0000 </r>
       <r>    0.5053    0.0000 </r>
       <r>    0.5055    0.0000 </r>
       <r>    0.5394    0.0000 </r>
       <r>    0.5695    0.0000 </r>
       <r>    0.6527    0.0000 </r>
       <r>    0.6550    0.0000 </r>
       <r>    0.6871    0.0000 </r>
       <r>    0.7307    0.0000 </r>
       <r>    0.7329    0.0000 </r>
       <r>    0.7621    0.0000 </r>
       <r>    0.7637    0.0000 </r>
       <r>    0.7662    0.0000 </r>
       <r>    0.7918    0.0000 </r>
       <r>    0.7940    0.0000 </r>
       <r>    0.7984    0.0000 </r>
       <r>    0.8268    0.0000 </r>
       <r>    0.8906    0.0000 </r>
       <r>    0.9122    0.0000 </r>
       <r>    0.9153    0.0000 </r>
       <r>    0.9245    0.0000 </r>
       <r>    0.9988    0.0000 </r>
       <r>    0.9994    0.0000 </r>
       <r>    1.0014    0.0000 </r>
       <r>    1.0309    0.0000 </r>
       <r>    1.0314    0.0000 </r>
       <r>    1.0658    0.0000 </r>
      </set>
      <set comment="kpoint 2">
       <r>  -25.7005    1.0000 </r>
       <r>  -25.6741    1.0000 </r>
       <r>  -24.0008    1.0000 </r>
       <r>  -23.9987    1.0000 </r>
       <r>  -23.9495    1.0000 </r>
       <r>  -23.9459    1.0000 </r>
       <r>  -23.8993    1.0000 </r>
       <r>  -23.8203    1.0000 </r>
       <r>  -23.8187    1.0000 </r>
       <r>  -23.3680    1.0000 </r>
       <r>  -23.3091    1.0000 </r>
       <r>  -23.3079    1.0000 </r>
       <r>  -22.7565    1.0000 </r>
       <r>  -22.7106    1.0000 </r>
       <r>  -21.6686    1.0000 </r>
       <r>  -21.6637    1.0000 </r>
       <r>  -21.6430    1.0000 </r>
       <r>  -21.6396    1.0000 </r>
       <r>  -21.2124    1.0000 </r>
       <r>  -21.2122    1.0000 </r>
       <r>  -21.2117    1.0000 </r>
       <r>  -20.3046    1.0000 </r>
       <r>  -20.3038    1.0000 </r>
       <r>  -20.2984    1.0000 </r>
       <r>  -20.1669    1.0000 </r>
       <r>  -20.1641    1.0000 </r>
       <r>  -20.1468    1.0000 </r>
       <r>  -19.2742    1.0000 </r>
       <r>  -19.2722    1.0000 </r>
       <r>  -19.2249    1.0000 </r>
       <r>  -18.6784    1.0000 </r>
       <r>  -18.6774    1.0000 </r>
       <r>  -18.6433    1.0000 </r>
       <r>  -17.7041    1.0000 </r>
       <r>  -17.7004    1.0000 </r>
       <r>  -17.5862    1.0000 </r>
       <r>  -17.5836    1.0000 </r>
       <r>  -17.5535    1.0000 </r>
       <r>  -17.2269    1.0000 </r>
       <r>  -16.9307    1.0000 </r>
       <r>  -16.9247    1.0000 </r>
       <r>  -16.1636    1.0000 </r>
       <r>  -16.1042    1.0000 </r>
       <r>  -16.0977    1.0000 </r>
       <r>  -15.9631    1.0000 </r>
       <r>  -15.9209    1.0000 </r>
       <r>  -15.9175    1.0000 </r>
       <r>  -15.3215    1.0000 </r>
       <r>  -15.2399    1.0000 </r>
       <r>  -15.2393    1.0000 </r>
       <r>  -15.0980    1.0000 </r>
       <r>  -15.0970    1.0000 </r>
       <r>  -15.0160    1.0000 </r>
       <r>  -14.8980    1.0000 </r>
       <r>  -14.4807    1.0000 </r>
       <r>  -14.4776    1.0000 </r>
       <r>  -13.9060    1.0000 </r>
       <r>  -13.8165    1.0000 </r>
       <r>  -13.8104    1.0000 </r>
       <r>  -13.6889    1.0000 </r>
       <r>  -13.6070    1.0000 </r>
       <r>  -13.2595    1.0000 </r>
       <r>  -13.2579    1.0000 </r>
       <r>  -13.1144    1.0000 </r>
       <r>  -13.0093    1.0000 </r>
       <r>  -12.8522    1.0000 </r>
       <r>  -12.8503    1.0000 </r>
       <r>  -12.7885    1.0000 </r>
       <r>  -12.7753    1.0000 </r>
       <r>  -12.7726    1.0000 </r>
       <r>  -12.1837    1.0000 </r>
       <r>  -12.1772    1.0000 </r>
       <r>  -12.1477    1.0000 </r>
       <r>  -11.9372    1.0000 </r>
       <r>  -11.7725    1.0000 </r>
       <r>  -11.7711    1.0000 </r>
       <r>  -11.7365    1.0000 </r>
       <r>  -11.6105    1.0000 </r>
       <r>  -11.6087    1.0000 </r>
       <r>  -11.3950    1.0000 </r>
       <r>  -11.3650    1.0000 </r>
       <r>  -11.3581    1.0000 </r>
       <r>  -11.2890    1.0000 </r>
       <r>  -11.0968    1.0000 </r>
       <r>  -11.0935    1.0000 </r>
       <r>  -10.9322    1.0000 </r>
       <r>  -10.8726    1.0000 </r>
       <r>  -10.8696    1.0000 </r>
       <r>  -10.8399    1.0000 </r>
       <r>  -10.8390    1.0000 </r>
       <r>  -10.8205    1.0000 </r>
       <r>  -10.4154    1.0000 </r>
       <r>  -10.3346    1.0000 </r>
       <r>  -10.3331    1.0000 </r>
       <r>  -10.2958    1.0000 </r>
       <r>  -10.2204    1.0000 </r>
       <r>  -10.2184    1.0000 </r>
       <r>  -10.1279    1.0000 </r>
       <r>  -10.1104    1.0000 </r>
       <r>  -10.1047    1.0000 </r>
       <r>   -9.9556    1.0000 </r>
       <r>   -9.9219    1.0000 </r>
       <r>   -9.9207    1.0000 </r>
       <r>   -9.8851    1.0000 </r>
       <r>   -9.6410    1.0000 </r>
       <r>   -9.6401    1.0000 </r>
       <r>   -9.6393    1.0000 </r>
       <r>   -9.5966    1.0000 </r>
       <r>   -9.5961    1.0000 </r>
       <r>   -9.4977    1.0000 </r>
       <r>   -9.3618    1.0000 </r>
       <r>   -9.3567    1.0000 </r>
       <r>   -9.0460    1.0000 </r>
       <r>   -9.0360    1.0000 </r>
       <r>   -9.0339    1.0000 </r>
       <r>   -9.0012    1.0000 </r>
       <r>   -8.9978    1.0000 </r>
       <r>   -8.9798    1.0000 </r>
       <r>   -8.9634    1.0000 </r>
       <r>   -8.9623    1.0000 </r>
       <r>   -8.9128    1.0000 </r>
       <r>   -8.8307    1.0000 </r>
       <r>   -8.7193    1.0000 </r>
       <r>   -8.5859    1.0000 </r>
       <r>   -8.5832    1.0000 </r>
       <r>   -8.5424    1.0000 </r>
       <r>   -8.3698    1.0000 </r>
       <r>   -8.3694    1.0000 </r>
       <r>   -8.3580    1.0000 </r>
       <r>   -8.2547    1.0000 </r>
       <r>   -8.0487    1.0000 </r>
       <r>   -8.0448    1.0000 </r>
       <r>   -7.7514    1.0000 </r>
       <r>   -7.7447    1.0000 </r>
       <r>   -7.3350    1.0000 </r>
       <r>   -7.3267    1.0000 </r>
       <r>   -7.3248    1.0000 </r>
       <r>   -6.9498    1.0000 </r>
       <r>   -6.9443    1.0000 </r>
       <r>   -6.9319    1.0000 </r>
       <r>   -6.4207    1.0000 </r>
       <r>   -6.3701    1.0000 </r>
       <r>   -6.3671    1.0000 </r>
       <r>   -6.3551    1.0000 </r>
       <r>   -6.2328    1.0000 </r>
       <r>   -6.2295    1.0000 </r>
       <r>   -6.0518    1.0000 </r>
       <r>   -6.0495    1.0000 </r>
       <r>   -6.0026    1.0000 </r>
       <r>   -5.9670    1.0000 </r>
       <r>   -5.9649    1.0000 </r>
       <r>   -5.9213    1.0000 </r>
       <r>   -5.9204    1.0000 </r>
       <r>   -5.9168    1.0000 </r>
       <r>   -5.8843    1.0000 </r>
       <r>   -5.8824    1.0000 </r>
       <r>   -5.8540    1.0000 </r>
       <r>   -5.8483    1.0000 </r>
       <r>   -5.8469    1.0000 </r>
       <r>   -5.4490    1.0000 </r>
       <r>   -5.4443    1.0000 </r>
       <r>   -5.4431    1.0000 </r>
       <r>   -3.4477    0.0000 </r>
       <r>   -3.4441    0.0000 </r>
       <r>   -3.1876    0.0000 </r>
       <r>   -2.7655    0.0000 </r>
       <r>   -2.7591    0.0000 </r>
       <r>   -2.4318    0.0000 </r>
       <r>   -2.4244    0.0000 </r>
       <r>   -2.4235    0.0000 </r>
       <r>   -2.2812    0.0000 </r>
       <r>   -1.8190    0.0000 </r>
       <r>   -1.8175    0.0000 </r>
       <r>   -1.6295    0.0000 </r>
       <r>   -1.2507    0.0000 </r>
       <r>   -1.2461    0.0000 </r>
       <r>   -0.9779    0.0000 </r>
       <r>   -0.9694    0.0000 </r>
       <r>   -0.6318    0.0000 </r>
       <r>   -0.4417    0.0000 </r>
       <r>   -0.3621    0.0000 </r>
       <r>   -0.3584    0.0000 </r>
       <r>   -0.3547    0.0000 </r>
       <r>   -0.2786    0.0000 </r>
       <r>   -0.2417    0.0000 </r>
       <r>   -0.2341    0.0000 </r>
       <r>   -0.2256    0.0000 </r>
       <r>   -0.2229    0.0000 </r>
       <r>   -0.0072    0.0000 </r>
       <r>   -0.0048    0.0000 </r>
       <r>   -0.0010    0.0000 </r>
       <r>    0.2403    0.0000 </r>
       <r>    0.2425    0.0000 </r>
       <r>    0.2914    0.0000 </r>
       <r>    0.3399    0.0000 </r>
       <r>    0.3614    0.0000 </r>
       <r>    0.3619    0.0000 </r>
       <r>    0.4880    0.0000 </r>
       <r>    0.5052    0.0000 </r>
       <r>    0.5058    0.0000 </r>
       <r>    0.5396    0.0000 </r>
       <r>    0.5698    0.0000 </r>
       <r>    0.6522    0.0000 </r>
       <r>    0.6552    0.0000 </r>
       <r>    0.6865    0.0000 </r>
       <r>    0.7301    0.0000 </r>
       <r>    0.7329    0.0000 </r>
       <r>    0.7605    0.0000 </r>
       <r>    0.7632    0.0000 </r>
       <r>    0.7669    0.0000 </r>
       <r>    0.7910    0.0000 </r>
       <r>    0.7938    0.0000 </r>
       <r>    0.8024    0.0000 </r>
       <r>    0.8274    0.0000 </r>
       <r>    0.8906    0.0000 </r>
       <r>    0.9110    0.0000 </r>
       <r>    0.9152    0.0000 </r>
       <r>    0.9270    0.0000 </r>
       <r>    0.9979    0.0000 </r>
       <r>    0.9990    0.0000 </r>
       <r>    1.0000    0.0000 </r>
       <r>    1.0311    0.0000 </r>
       <r>    1.0324    0.0000 </r>
       <r>    1.0652    0.0000 </r>
      </set>
      <set comment="kpoint 3">
       <r>  -25.7005    1.0000 </r>
       <r>  -25.6741    1.0000 </r>
       <r>  -24.0007    1.0000 </r>
       <r>  -23.9986    1.0000 </r>
       <r>  -23.9495    1.0000 </r>
       <r>  -23.9465    1.0000 </r>
       <r>  -23.8986    1.0000 </r>
       <r>  -23.8203    1.0000 </r>
       <r>  -23.8190    1.0000 </r>
       <r>  -23.3677    1.0000 </r>
       <r>  -23.3091    1.0000 </r>
       <r>  -23.3082    1.0000 </r>
       <r>  -22.7563    1.0000 </r>
       <r>  -22.7108    1.0000 </r>
       <r>  -21.6686    1.0000 </r>
       <r>  -21.6636    1.0000 </r>
       <r>  -21.6430    1.0000 </r>
       <r>  -21.6396    1.0000 </r>
       <r>  -21.2124    1.0000 </r>
       <r>  -21.2122    1.0000 </r>
       <r>  -21.2117    1.0000 </r>
       <r>  -20.3046    1.0000 </r>
       <r>  -20.3038    1.0000 </r>
       <r>  -20.2984    1.0000 </r>
       <r>  -20.1669    1.0000 </r>
       <r>  -20.1641    1.0000 </r>
       <r>  -20.1469    1.0000 </r>
       <r>  -19.2742    1.0000 </r>
       <r>  -19.2721    1.0000 </r>
       <r>  -19.2251    1.0000 </r>
       <r>  -18.6784    1.0000 </r>
       <r>  -18.6773    1.0000 </r>
       <r>  -18.6435    1.0000 </r>
       <r>  -17.7041    1.0000 </r>
       <r>  -17.6999    1.0000 </r>
       <r>  -17.5862    1.0000 </r>
       <r>  -17.5836    1.0000 </r>
       <r>  -17.5530    1.0000 </r>
       <r>  -17.2306    1.0000 </r>
       <r>  -16.9307    1.0000 </r>
       <r>  -16.9202    1.0000 </r>
       <r>  -16.1773    1.0000 </r>
       <r>  -16.1042    1.0000 </r>
       <r>  -16.0883    1.0000 </r>
       <r>  -15.9644    1.0000 </r>
       <r>  -15.9209    1.0000 </r>
       <r>  -15.9121    1.0000 </r>
       <r>  -15.3227    1.0000 </r>
       <r>  -15.2399    1.0000 </r>
       <r>  -15.2392    1.0000 </r>
       <r>  -15.1025    1.0000 </r>
       <r>  -15.0977    1.0000 </r>
       <r>  -15.0119    1.0000 </r>
       <r>  -14.8980    1.0000 </r>
       <r>  -14.4805    1.0000 </r>
       <r>  -14.4757    1.0000 </r>
       <r>  -13.9134    1.0000 </r>
       <r>  -13.8163    1.0000 </r>
       <r>  -13.8065    1.0000 </r>
       <r>  -13.6879    1.0000 </r>
       <r>  -13.6052    1.0000 </r>
       <r>  -13.2593    1.0000 </r>
       <r>  -13.2579    1.0000 </r>
       <r>  -13.1146    1.0000 </r>
       <r>  -13.0138    1.0000 </r>
       <r>  -12.8518    1.0000 </r>
       <r>  -12.8482    1.0000 </r>
       <r>  -12.7888    1.0000 </r>
       <r>  -12.7747    1.0000 </r>
       <r>  -12.7711    1.0000 </r>
       <r>  -12.1982    1.0000 </r>
       <r>  -12.1771    1.0000 </r>
       <r>  -12.1339    1.0000 </r>
       <r>  -11.9367    1.0000 </r>
       <r>  -11.7735    1.0000 </r>
       <r>  -11.7722    1.0000 </r>
       <r>  -11.7344    1.0000 </r>
       <r>  -11.6102    1.0000 </r>
       <r>  -11.6090    1.0000 </r>
       <r>  -11.4004    1.0000 </r>
       <r>  -11.3674    1.0000 </r>
       <r>  -11.3531    1.0000 </r>
       <r>  -11.2863    1.0000 </r>
       <r>  -11.0968    1.0000 </r>
       <r>  -11.0936    1.0000 </r>
       <r>  -10.9364    1.0000 </r>
       <r>  -10.8726    1.0000 </r>
       <r>  -10.8689    1.0000 </r>
       <r>  -10.8424    1.0000 </r>
       <r>  -10.8399    1.0000 </r>
       <r>  -10.8134    1.0000 </r>
       <r>  -10.4163    1.0000 </r>
       <r>  -10.3346    1.0000 </r>
       <r>  -10.3331    1.0000 </r>
       <r>  -10.2963    1.0000 </r>
       <r>  -10.2204    1.0000 </r>
       <r>  -10.2184    1.0000 </r>
       <r>  -10.1317    1.0000 </r>
       <r>  -10.1103    1.0000 </r>
       <r>  -10.1004    1.0000 </r>
       <r>   -9.9556    1.0000 </r>
       <r>   -9.9219    1.0000 </r>
       <r>   -9.9207    1.0000 </r>
       <r>   -9.8853    1.0000 </r>
       <r>   -9.6410    1.0000 </r>
       <r>   -9.6400    1.0000 </r>
       <r>   -9.6392    1.0000 </r>
       <r>   -9.5965    1.0000 </r>
       <r>   -9.5962    1.0000 </r>
       <r>   -9.4983    1.0000 </r>
       <r>   -9.3607    1.0000 </r>
       <r>   -9.3565    1.0000 </r>
       <r>   -9.0480    1.0000 </r>
       <r>   -9.0358    1.0000 </r>
       <r>   -9.0339    1.0000 </r>
       <r>   -9.0024    1.0000 </r>
       <r>   -8.9979    1.0000 </r>
       <r>   -8.9795    1.0000 </r>
       <r>   -8.9636    1.0000 </r>
       <r>   -8.9624    1.0000 </r>
       <r>   -8.9113    1.0000 </r>
       <r>   -8.8310    1.0000 </r>
       <r>   -8.7174    1.0000 </r>
       <r>   -8.5859    1.0000 </r>
       <r>   -8.5830    1.0000 </r>
       <r>   -8.5426    1.0000 </r>
       <r>   -8.3698    1.0000 </r>
       <r>   -8.3696    1.0000 </r>
       <r>   -8.3580    1.0000 </r>
       <r>   -8.2580    1.0000 </r>
[...]
       <r>   -23.6025     0.0000    18.0000 </r>
       <r>   -23.5043     0.0000    18.0000 </r>
       <r>   -23.4061     0.0000    18.0000 </r>
       <r>   -23.3079    49.4638    22.8575 </r>
       <r>   -23.2097     0.0000    24.0000 </r>
       <r>   -23.1115     0.0000    24.0000 </r>
       <r>   -23.0133     0.0000    24.0000 </r>
       <r>   -22.9150     0.0000    24.0000 </r>
       <r>   -22.8168     0.0000    24.0000 </r>
       <r>   -22.7186    32.1683    27.1590 </r>
       <r>   -22.6204     0.0000    28.0000 </r>
       <r>   -22.5222     0.0000    28.0000 </r>
       <r>   -22.4240     0.0000    28.0000 </r>
       <r>   -22.3258     0.0000    28.0000 </r>
       <r>   -22.2276     0.0000    28.0000 </r>
       <r>   -22.1294     0.0000    28.0000 </r>
       <r>   -22.0312     0.0000    28.0000 </r>
       <r>   -21.9330     0.0000    28.0000 </r>
       <r>   -21.8348     0.0000    28.0000 </r>
       <r>   -21.7366     0.0000    28.0000 </r>
       <r>   -21.6384    70.3268    34.9064 </r>
       <r>   -21.5402     0.0000    36.0000 </r>
       <r>   -21.4420     0.0000    36.0000 </r>
       <r>   -21.3438     0.0000    36.0000 </r>
       <r>   -21.2456     0.0001    36.0000 </r>
       <r>   -21.1474    61.0973    42.0000 </r>
       <r>   -21.0492     0.0000    42.0000 </r>
       <r>   -20.9510     0.0000    42.0000 </r>
       <r>   -20.8528     0.0000    42.0000 </r>
       <r>   -20.7546     0.0000    42.0000 </r>
       <r>   -20.6564     0.0000    42.0000 </r>
       <r>   -20.5582     0.0000    42.0000 </r>
       <r>   -20.4600     0.0000    42.0000 </r>
       <r>   -20.3617     0.0000    42.0000 </r>
       <r>   -20.2635    61.0974    48.0000 </r>
       <r>   -20.1653    20.2562    49.9892 </r>
       <r>   -20.0671     5.0680    54.0000 </r>
       <r>   -19.9689     0.0000    54.0000 </r>
       <r>   -19.8707     0.0000    54.0000 </r>
       <r>   -19.7725     0.0000    54.0000 </r>
       <r>   -19.6743     0.0000    54.0000 </r>
       <r>   -19.5761     0.0000    54.0000 </r>
       <r>   -19.4779     0.0000    54.0000 </r>
       <r>   -19.3797     0.0000    54.0000 </r>
       <r>   -19.2815     3.4030    54.3342 </r>
       <r>   -19.1833    30.8641    60.0000 </r>
       <r>   -19.0851     0.0000    60.0000 </r>
       <r>   -18.9869     0.0000    60.0000 </r>
       <r>   -18.8887     0.0000    60.0000 </r>
       <r>   -18.7905     0.0000    60.0000 </r>
       <r>   -18.6923     0.6009    60.0590 </r>
       <r>   -18.5941    33.5800    66.0000 </r>
       <r>   -18.4959     0.0000    66.0000 </r>
       <r>   -18.3977     0.0000    66.0000 </r>
       <r>   -18.2995     0.0000    66.0000 </r>
       <r>   -18.2013     0.0000    66.0000 </r>
       <r>   -18.1031     0.0000    66.0000 </r>
       <r>   -18.0049     0.0000    66.0000 </r>
       <r>   -17.9067     0.0000    66.0000 </r>
       <r>   -17.8084     0.0000    66.0000 </r>
       <r>   -17.7102     3.7264    66.3659 </r>
       <r>   -17.6120    15.2740    70.0004 </r>
       <r>   -17.5138    52.7066    75.1764 </r>
       <r>   -17.4156     0.0678    76.0067 </r>
       <r>   -17.3174    10.2662    77.3084 </r>
       <r>   -17.2192     5.8607    77.9757 </r>
       <r>   -17.1210     0.0000    78.0000 </r>
       <r>   -17.0228     0.0000    78.0000 </r>
       <r>   -16.9246    16.6755    79.6376 </r>
       <r>   -16.8264     3.4696    80.6074 </r>
       <r>   -16.7282     2.9500    80.9564 </r>
       <r>   -16.6300     9.4420    81.9606 </r>
       <r>   -16.5318     2.1615    82.2123 </r>
       <r>   -16.4336     7.1353    83.0675 </r>
       <r>   -16.3354     2.3623    83.3653 </r>
       <r>   -16.2372     2.1732    83.6468 </r>
       <r>   -16.1390     3.0520    83.9997 </r>
       <r>   -16.0408    26.1312    86.5662 </r>
       <r>   -15.9426    23.4189    90.0012 </r>
       <r>   -15.8444    25.2836    92.4845 </r>
       <r>   -15.7462     2.6125    92.8232 </r>
       <r>   -15.6480     9.1044    93.7609 </r>
       <r>   -15.5498     0.0000    94.0000 </r>
       <r>   -15.4516     5.6462    94.5545 </r>
       <r>   -15.3534     4.8312    95.4411 </r>
       <r>   -15.2551     4.2254    96.0483 </r>
       <r>   -15.1569    14.9152   101.4647 </r>
       <r>   -15.0587    24.7766   104.0000 </r>
       <r>   -14.9605     6.9710   104.6846 </r>
       <r>   -14.8623    30.1953   108.0000 </r>
       <r>   -14.7641     0.0000   108.0000 </r>
       <r>   -14.6659     0.0000   108.0000 </r>
       <r>   -14.5677     0.0000   108.0000 </r>
       <r>   -14.4695    20.5620   110.0193 </r>
       <r>   -14.3713     5.1334   110.9376 </r>
       <r>   -14.2731     9.8401   112.0000 </r>
       <r>   -14.1749     0.4506   112.0443 </r>
       <r>   -14.0767     8.6504   113.1831 </r>
       <r>   -13.9785     2.9318   113.5546 </r>
       <r>   -13.8803     3.7332   114.0000 </r>
       <r>   -13.7821    24.7089   116.4265 </r>
       <r>   -13.6839    25.2481   119.1796 </r>
       <r>   -13.5857     3.9520   120.3881 </r>
       <r>   -13.4875     4.3219   120.9245 </r>
       <r>   -13.3893     9.8426   122.0000 </r>
       <r>   -13.2911     6.5964   122.6478 </r>
       <r>   -13.1929    29.1884   126.0000 </r>
       <r>   -13.0947    34.2204   129.3606 </r>
       <r>   -12.9965     5.7061   129.9939 </r>
       <r>   -12.8983     0.0000   130.0000 </r>
       <r>   -12.8001    42.4000   134.1638 </r>
       <r>   -12.7019    27.1033   138.6645 </r>
       <r>   -12.6036     9.3604   139.6859 </r>
       <r>   -12.5054     0.0000   140.0000 </r>
       <r>   -12.4072     8.6546   140.8499 </r>
       <r>   -12.3090     3.7980   141.4064 </r>
       <r>   -12.2108     2.9827   141.7929 </r>
       <r>   -12.1126    24.3094   144.2540 </r>
       <r>   -12.0144     6.9575   145.0167 </r>
       <r>   -11.9162     6.6262   146.6507 </r>
       <r>   -11.8180    12.3920   148.1504 </r>
       <r>   -11.7198    34.6694   152.7716 </r>
       <r>   -11.6216    16.4843   155.1192 </r>
       <r>   -11.5234    21.8869   158.6497 </r>
       <r>   -11.4252     9.5483   160.0044 </r>
       <r>   -11.3270    13.8241   162.3913 </r>
       <r>   -11.2288    23.0700   164.8322 </r>
       <r>   -11.1306     0.0010   166.0001 </r>
       <r>   -11.0324    52.7667   171.1820 </r>
       <r>   -10.9342     5.9774   171.8871 </r>
       <r>   -10.8360    76.7615   179.5383 </r>
       <r>   -10.7378     4.6841   180.5934 </r>
       <r>   -10.6396    12.1346   181.8917 </r>
       <r>   -10.5414     0.0000   182.0000 </r>
       <r>   -10.4432    13.8579   183.3609 </r>
       <r>   -10.3450     5.7651   184.1996 </r>
       <r>   -10.2468    20.3680   190.0003 </r>
       <r>   -10.1486    57.0234   195.6002 </r>
       <r>   -10.0503    28.8390   198.6990 </r>
       <r>    -9.9521    25.2397   201.4457 </r>
       <r>    -9.8539    61.0972   208.0000 </r>
       <r>    -9.7557     0.0000   208.0000 </r>
       <r>    -9.6575     0.3616   208.0355 </r>
       <r>    -9.5593    73.1857   218.0000 </r>
       <r>    -9.4611    20.3658   220.0000 </r>
       <r>    -9.3629     5.5312   220.5432 </r>
       <r>    -9.2647    15.0574   223.9121 </r>
       <r>    -9.1665     3.3123   224.3253 </r>
       <r>    -9.0683     6.3622   225.5915 </r>
       <r>    -8.9701   109.6792   236.5712 </r>
       <r>    -8.8719    13.6538   241.3409 </r>
       <r>    -8.7737    19.3332   244.0000 </r>
       <r>    -8.6755     5.9595   244.5852 </r>
       <r>    -8.5773    36.2023   248.2554 </r>
       <r>    -8.4791    25.1713   252.0062 </r>
       <r>    -8.3809    13.3936   253.5489 </r>
       <r>    -8.2827    36.8986   259.6247 </r>
       <r>    -8.1845     2.3747   260.0000 </r>
       <r>    -8.0863     0.0000   260.0000 </r>
       <r>    -7.9881    26.0755   262.5607 </r>
       <r>    -7.8899     9.2532   263.5754 </r>
       <r>    -7.7917    12.8858   265.1324 </r>
       <r>    -7.6935    27.1530   268.0000 </r>
       <r>    -7.5953     0.0000   268.0000 </r>
       <r>    -7.4970     0.0000   268.0000 </r>
       <r>    -7.3988     0.0000   268.0000 </r>
       <r>    -7.3006    61.0919   273.9995 </r>
       <r>    -7.2024     0.0000   274.0000 </r>
       <r>    -7.1042     0.0000   274.0000 </r>
       <r>    -7.0060     0.0000   274.0000 </r>
       <r>    -6.9078    61.0948   279.9997 </r>
       <r>    -6.8096     0.0000   280.0000 </r>
       <r>    -6.7114     0.0000   280.0000 </r>
       <r>    -6.6132     0.0000   280.0000 </r>
       <r>    -6.5150     0.0000   280.0000 </r>
       <r>    -6.4168    14.7510   281.4486 </r>
       <r>    -6.3186    55.9647   287.4959 </r>
       <r>    -6.2204    39.5219   291.8812 </r>
       <r>    -6.1222     0.0000   292.0000 </r>
       <r>    -6.0240    47.7189   296.6862 </r>
       <r>    -5.9258    61.6048   303.7172 </r>
       <r>    -5.8276   114.9629   317.9908 </r>
       <r>    -5.7294     0.0000   318.0000 </r>
       <r>    -5.6312     0.0000   318.0000 </r>
       <r>    -5.5330     0.0000   318.0000 </r>
       <r>    -5.4348    56.5941   323.5578 </r>
       <r>    -5.3366     0.0000   324.0000 </r>
       <r>    -5.2384     0.0000   324.0000 </r>
       <r>    -5.1402     0.0000   324.0000 </r>
       <r>    -5.0420     0.0000   324.0000 </r>
       <r>    -4.9437     0.0000   324.0000 </r>
       <r>    -4.8455     0.0000   324.0000 </r>
       <r>    -4.7473     0.0000   324.0000 </r>
       <r>    -4.6491     0.0000   324.0000 </r>
       <r>    -4.5509     0.0000   324.0000 </r>
       <r>    -4.4527     0.0000   324.0000 </r>
       <r>    -4.3545     0.0000   324.0000 </r>
       <r>    -4.2563     0.0000   324.0000 </r>
       <r>    -4.1581     0.0000   324.0000 </r>
       <r>    -4.0599     0.0000   324.0000 </r>
       <r>    -3.9617     0.0000   324.0000 </r>
       <r>    -3.8635     0.0000   324.0000 </r>
       <r>    -3.7653     0.0000   324.0000 </r>
       <r>    -3.6671     0.0000   324.0000 </r>
       <r>    -3.5689     0.0000   324.0000 </r>
       <r>    -3.4707     0.0049   324.0005 </r>
       <r>    -3.3725    36.1437   327.5499 </r>
       <r>    -3.2743    11.9830   329.1103 </r>
       <r>    -3.1761     7.7068   329.9903 </r>
       <r>    -3.0779     0.0000   330.0000 </r>
       <r>    -2.9797     0.0000   330.0000 </r>
       <r>    -2.8815     0.0000   330.0000 </r>
       <r>    -2.7833     0.0351   330.0034 </r>
       <r>    -2.6851    26.0366   332.6927 </r>
       <r>    -2.5869     8.7529   333.6596 </r>
       <r>    -2.4887     0.9539   334.0937 </r>
       <r>    -2.3904    67.2261   341.0354 </r>
       <r>    -2.2922     5.4750   341.7377 </r>
       <r>    -2.1940     0.0000   342.0000 </r>
       <r>    -2.0958     0.0000   342.0000 </r>
       <r>    -1.9976     0.0000   342.0000 </r>
       <r>    -1.8994     0.0000   342.0000 </r>
       <r>    -1.8012    24.3511   344.3914 </r>
       <r>    -1.7030    13.9161   346.0000 </r>
       <r>    -1.6048    20.3651   347.9999 </r>
       <r>    -1.5066     0.0000   348.0000 </r>
       <r>    -1.4084     0.0000   348.0000 </r>
       <r>    -1.3102     0.0000   348.0000 </r>
       <r>    -1.2120    28.2334   350.7726 </r>
       <r>    -1.1138    12.2492   352.2030 </r>
       <r>    -1.0156     9.1160   353.4287 </r>
       <r>    -0.9174    24.7773   356.0000 </r>
       <r>    -0.8192     0.0000   356.0000 </r>
       <r>    -0.7210     0.0000   356.0000 </r>
       <r>    -0.6228     2.9412   356.2888 </r>
       <r>    -0.5246    14.5952   358.0000 </r>
       <r>    -0.4264    20.2490   359.9885 </r>
       <r>    -0.3282    61.6025   366.0496 </r>
       <r>    -0.2300    53.9334   372.4302 </r>
       <r>    -0.1318    14.5926   376.0000 </r>
       <r>    -0.0336     6.8521   376.6729 </r>
       <r>     0.0646    43.1145   381.9343 </r>
       <r>     0.1629     6.0764   382.5967 </r>
       <r>     0.2611    28.8377   385.9988 </r>
       <r>     0.3593    37.3166   389.6646 </r>
       <r>     0.4575    37.1931   394.7529 </r>
       <r>     0.5557    67.4578   402.2921 </r>
       <r>     0.6539    40.4349   407.4715 </r>
       <r>     0.7521    69.5005   416.0259 </r>
       <r>     0.8503    66.3356   424.4817 </r>
       <r>     0.9485    72.6525   433.6683 </r>
       <r>     1.0467    93.6573   444.4651 </r>
       <r>     1.1449    15.2603   448.0000 </r>
       <r>     1.2431     0.0000   448.0000 </r>
       <r>     1.3413     0.0000   448.0000 </r>
       <r>     1.4395     0.0000   448.0000 </r>
       <r>     1.5377     0.0000   448.0000 </r>
       <r>     1.6359     0.0000   448.0000 </r>
       <r>     1.7341     0.0000   448.0000 </r>
       <r>     1.8323     0.0000   448.0000 </r>
       <r>     1.9305     0.0000   448.0000 </r>
       <r>     2.0287     0.0000   448.0000 </r>
       <r>     2.1269     0.0000   448.0000 </r>
       <r>     2.2251     0.0000   448.0000 </r>
       <r>     2.3233     0.0000   448.0000 </r>
       <r>     2.4215     0.0000   448.0000 </r>
      </set>
     </set>
    </array>
   </total>
  </dos>
 </calculation>
 <structure name="finalpos" >
  <crystal>
   <varray name="basis" >
    <v>      28.91100478       0.00193079       0.00000000 </v>
    <v>     -14.45381593      25.02999182       0.00000000 </v>
    <v>       0.00000000       0.00000000      20.00000000 </v>
   </varray>
   <i name="volume">  14473.40241070 </i>
   <varray name="rec_basis" >
    <v>       0.03458757       0.01997293       0.00000000 </v>
    <v>      -0.00000267       0.03995053       0.00000000 </v>
    <v>       0.00000000       0.00000000       0.05000000 </v>
   </varray>
  </crystal>
  <varray name="positions" >
   <v>       0.61390613       0.29642726       0.48222570 </v>
   <v>       0.68317833       0.38835426       0.48339135 </v>
   <v>       0.70574771       0.31900854       0.48249808 </v>
   <v>       0.63819355       0.23012326       0.47958898 </v>
   <v>       0.77195395       0.40964478       0.48181691 </v>
   <v>       0.59253230       0.36383806       0.48133028 </v>
   <v>       0.38931098       0.69806273       0.51325494 </v>
   <v>       0.30935829       0.61238256       0.51346381 </v>
   <v>       0.30367853       0.69236093       0.51327058 </v>
   <v>       0.38124054       0.77495382       0.51584906 </v>
   <v>       0.22677837       0.60736349       0.51659166 </v>
   <v>       0.39432071       0.62052321       0.51683091 </v>
   <v>       0.53666380       0.48678493       0.55596158 </v>
   <v>       0.47784843       0.53760740       0.54414771 </v>
   <v>       0.95072838       0.46371213       0.55474187 </v>
   <v>       0.06027902       0.52300539       0.54335716 </v>
   <v>       0.51397329       0.05104500       0.55285987 </v>
   <v>       0.46297478       0.94148435       0.54092612 </v>
   <v>       0.65293676       0.28390005       0.48241393 </v>
   <v>       0.63163683       0.34925641       0.48330470 </v>
   <v>       0.71823248       0.37056906       0.48352110 </v>
   <v>       0.35746917       0.71962954       0.51286730 </v>
   <v>       0.36277431       0.64426289       0.51324528 </v>
   <v>       0.28209448       0.63892538       0.51315688 </v>
   <v>       0.56217540       0.42406855       0.51521224 </v>
   <v>       0.56700934       0.46447409       0.56089807 </v>
   <v>       0.49957784       0.47108280       0.50692733 </v>
   <v>       0.45040740       0.56252234       0.53705119 </v>
   <v>       0.60671035       0.48394416       0.61749287 </v>
   <v>       0.59822259       0.40245847       0.51899686 </v>
   <v>       0.86249554       0.43889151       0.51472541 </v>
   <v>       0.89807265       0.43320976       0.55948975 </v>
   <v>       0.97206225       0.50159157       0.50660073 </v>
   <v>       0.11264926       0.55072790       0.53647445 </v>
   <v>       0.87784910       0.39237985       0.61482983 </v>
   <v>       0.80481970       0.40298875       0.51840426 </v>
   <v>       0.57708775       0.13932894       0.51237473 </v>
   <v>       0.53657958       0.10374810       0.55797877 </v>
   <v>       0.52955699       0.02966576       0.50366747 </v>
   <v>       0.43832536       0.88910218       0.53423673 </v>
   <v>       0.51747641       0.12405446       0.61488958 </v>
   <v>       0.59911755       0.19705253       0.51661425 </v>
   <v>       0.49038501       0.42976238       0.46039134 </v>
   <v>       0.52305504       0.40679097       0.46591831 </v>
   <v>       0.46827260       0.49750765       0.50090865 </v>
   <v>       0.41069298       0.54961801       0.48703145 </v>
   <v>       0.40003317       0.50792288       0.44363683 </v>
   <v>       0.42896198       0.48073817       0.44917775 </v>
   <v>       0.42033772       0.43833262       0.40458546 </v>
   <v>       0.45006638       0.41380044       0.40989848 </v>
   <v>       0.38183362       0.57880336       0.48136087 </v>
   <v>       0.93993431       0.51144500       0.46085297 </v>
   <v>       0.88430596       0.47875776       0.46634017 </v>
   <v>       0.02977904       0.53309108       0.50073265 </v>
   <v>       0.13947584       0.59114697       0.48723308 </v>
   <v>       0.10843290       0.60225776       0.44443059 </v>
   <v>       0.05231741       0.57313254       0.44982214 </v>
   <v>       0.01851942       0.58228090       0.40591044 </v>
   <v>       0.96426452       0.55245228       0.41116259 </v>
   <v>       0.19754047       0.62018155       0.48166415 </v>
   <v>       0.57090550       0.06176526       0.45715739 </v>
   <v>       0.59414930       0.11743957       0.46289781 </v>
   <v>       0.50308475       0.97192710       0.49766088 </v>
   <v>       0.45148288       0.86217168       0.48466681 </v>
   <v>       0.49300426       0.89314113       0.44101921 </v>
   <v>       0.51991083       0.94929604       0.44609863 </v>
   <v>       0.56221397       0.98305431       0.40137565 </v>
   <v>       0.58672394       0.03733847       0.40658764 </v>
   <v>       0.42258240       0.80405268       0.47974648 </v>
   <v>       0.45892254       0.59490201       0.57202951 </v>
   <v>       0.60120403       0.45092786       0.65013187 </v>
   <v>       0.64809570       0.50358498       0.59898891 </v>
   <v>       0.60136700       0.51279532       0.64710874 </v>
   <v>       0.63132039       0.42080573       0.55515015 </v>
   <v>       0.13652017       0.54184859       0.57096981 </v>
   <v>       0.85054737       0.39736885       0.64848683 </v>
   <v>       0.85586095       0.35137270       0.59505192 </v>
   <v>       0.91206749       0.39695450       0.64371389 </v>
   <v>       0.78995244       0.36911972       0.55340282 </v>
   <v>       0.40592045       0.86527099       0.56919042 </v>
   <v>       0.55065701       0.15112923       0.64763095 </v>
   <v>       0.49825125       0.14631647       0.59678383 </v>
   <v>       0.48840034       0.08984449       0.64428955 </v>
   <v>       0.58065076       0.21176581       0.55265618 </v>
   <v>       0.51858291       0.37559040       0.43129128 </v>
   <v>       0.38981200       0.42644046       0.36589356 </v>
   <v>       0.44392476       0.38183910       0.37559117 </v>
   <v>       0.36961373       0.49632970       0.40474354 </v>
   <v>       0.34877677       0.56355554       0.44478690 </v>
   <v>       0.85755812       0.48378666       0.43237687 </v>
   <v>       0.03712617       0.61335042       0.36784697 </v>
   <v>       0.93842866       0.55903400       0.37740101 </v>
   <v>       0.12725517       0.63320657       0.40613797 </v>
   <v>       0.21534827       0.65364336       0.44563898 </v>
   <v>       0.62545863       0.14414825       0.42838342 </v>
   <v>       0.57412102       0.96440101       0.36271482 </v>
   <v>       0.61863741       0.06312088       0.37219128 </v>
   <v>       0.50474356       0.87424366       0.40238212 </v>
   <v>       0.43769155       0.78611499       0.44316134 </v>
  </varray>
 </structure>
</modeling>
