<?xml version="1.0" encoding="ISO-8859-1"?>
<modeling>
 <generator>
  <i name="program" type="string">vasp </i>
  <i name="version" type="string">5.4.4.18Apr17-6-g9f103f2a35  </i>
  <i name="subversion" type="string">(build Jun 07 2020 16:50:00) complex            parallel </i>
  <i name="platform" type="string">LinuxIFC </i>
  <i name="date" type="string">2023 03 03 </i>
  <i name="time" type="string">03:18:02 </i>
 </generator>
 <incar>
  <i type="string" name="SYSTEM">Simulation for cell shape cell volume r</i>
  <i type="int" name="ISTART">     1</i>
  <i type="string" name="PREC">high</i>
  <i type="string" name="ALGO">48</i>
  <i type="int" name="ICHARG">    11</i>
  <i type="int" name="NELM">   200</i>
  <i type="int" name="IBRION">    -1</i>
  <i name="EDIFF">      0.00001000</i>
  <i name="EDIFFG">     -0.01000000</i>
  <i type="int" name="NSW">     0</i>
  <i type="int" name="ISIF">     2</i>
  <i name="ENCUT">    500.00000000</i>
  <i name="POTIM">      0.30000000</i>
  <i type="string" name="LREAL">A</i>
  <i type="int" name="ISMEAR">     0</i>
  <i name="SIGMA">      0.01000000</i>
  <i type="int" name="NWRITE">     0</i>
  <i type="logical" name="LWAVE"> F  </i>
  <i type="logical" name="LCHARG"> F  </i>
  <v type="int" name="KPOINT_BSE">    -1     0     0     0</v>
  <i type="int" name="NELM">   200</i>
  <i type="string" name="GGA">PE</i>
 </incar>
 <structure name="primitive_cell" >
  <crystal>
   <varray name="basis" >
    <v>      14.56515393       0.02369600       0.00000000 </v>
    <v>       0.04078005      25.16161912       0.00000000 </v>
    <v>       0.00000000       0.00000000      20.00000000 </v>
   </varray>
   <i name="volume">   7329.63778619 </i>
   <varray name="rec_basis" >
    <v>       0.06865720      -0.00011127       0.00000000 </v>
    <v>      -0.00006466       0.03974318       0.00000000 </v>
    <v>       0.00000000       0.00000000       0.05000000 </v>
   </varray>
  </crystal>
  <varray name="positions" >
   <v>       0.08227151       0.36130532      -0.48597971 </v>
   <v>       0.08044533       0.30871018      -0.49739565 </v>
   <v>       0.00090458       0.38603412      -0.49398686 </v>
   <v>      -0.07905561       0.36125949       0.49438600 </v>
   <v>       0.00451791       0.28005949       0.49086152 </v>
   <v>       0.16905545       0.27970153      -0.49820767 </v>
   <v>      -0.00099795       0.44477053      -0.49081996 </v>
   <v>       0.13659791       0.45237461      -0.45096737 </v>
   <v>      -0.07419062       0.30809125       0.49061841 </v>
   <v>       0.23393999       0.32796054      -0.42168484 </v>
   <v>       0.07512185       0.47320617      -0.46773854 </v>
   <v>       0.24121954       0.29477695      -0.45624936 </v>
   <v>       0.18053010       0.23673082       0.45813984 </v>
   <v>      -0.07910949       0.47240851       0.48754158 </v>
   <v>       0.12494926       0.22402740       0.42546794 </v>
   <v>      -0.13893623       0.45079496       0.46974094 </v>
   <v>      -0.16148587       0.27840275       0.48761320 </v>
   <v>       0.07081891      -0.47173337      -0.46520892 </v>
   <v>       0.32206239       0.26525742      -0.45670845 </v>
   <v>       0.26527519       0.21145419       0.45482326 </v>
   <v>      -0.09837985       0.20238012      -0.49079262 </v>
   <v>      -0.07872420      -0.47249732       0.48686368 </v>
   <v>      -0.24462143       0.34777110       0.46638779 </v>
   <v>      -0.16235323       0.22362699       0.49975468 </v>
   <v>      -0.24426375       0.30513446       0.47561574 </v>
   <v>       0.15012051      -0.44575669      -0.43199441 </v>
   <v>       0.33819976       0.22379139       0.49784106 </v>
   <v>       0.39839874       0.32407439      -0.38691201 </v>
   <v>      -0.00477461      -0.44213477      -0.48892396 </v>
   <v>       0.22547732      -0.45107325      -0.45932952 </v>
   <v>       0.38949930       0.27702424      -0.40301212 </v>
   <v>       0.13418222      -0.42357832      -0.37814019 </v>
   <v>       0.27765584       0.17190634       0.40044973 </v>
   <v>      -0.16026219      -0.44766858       0.45460890 </v>
   <v>       0.42873821       0.23849836      -0.37710292 </v>
   <v>      -0.24560700       0.19708696      -0.49791109 </v>
   <v>      -0.32572487       0.27680838       0.47482966 </v>
   <v>       0.21423009       0.14022530       0.39161085 </v>
   <v>       0.42645841       0.19398281       0.49522869 </v>
   <v>      -0.00606065      -0.38336361      -0.48925198 </v>
   <v>      -0.23430703      -0.45320174       0.48362716 </v>
   <v>      -0.14729931      -0.42640927       0.39980078 </v>
   <v>       0.34901916       0.17508037       0.36721572 </v>
   <v>      -0.33061216       0.22200281       0.48917626 </v>
   <v>      -0.43518432       0.34180388       0.49545021 </v>
   <v>       0.07483131      -0.35815140      -0.48817989 </v>
   <v>      -0.49595550       0.22206499       0.49436360 </v>
   <v>      -0.23868502       0.14053793      -0.47688067 </v>
   <v>      -0.40758690       0.30851184       0.45485932 </v>
   <v>       0.42098799       0.14091242       0.49359701 </v>
   <v>      -0.08794584      -0.35904733      -0.49141398 </v>
   <v>      -0.43691179       0.30090404       0.39778024 </v>
   <v>      -0.20591333       0.10935435       0.48193050 </v>
   <v>       0.28683373      -0.36809886       0.42017993 </v>
   <v>      -0.26108729       0.13057355      -0.41873789 </v>
   <v>       0.22362235      -0.33543319       0.42319814 </v>
   <v>       0.15499042      -0.33369241       0.38681098 </v>
   <v>       0.06955645      -0.30510518      -0.48863493 </v>
   <v>      -0.41869514       0.19304974       0.49112429 </v>
   <v>      -0.49773823       0.11599358       0.49144080 </v>
   <v>      -0.08485265      -0.30592665      -0.49209546 </v>
   <v>       0.30500871       0.04498437      -0.40877119 </v>
   <v>       0.42786530       0.09012958      -0.37839508 </v>
   <v>      -0.17790841      -0.33299543      -0.37030949 </v>
   <v>       0.38660043       0.05762372      -0.41355192 </v>
   <v>       0.23300469      -0.29213767       0.47328156 </v>
   <v>      -0.30944621      -0.36668360      -0.40463435 </v>
   <v>      -0.24523891      -0.33492976      -0.40794310 </v>
   <v>      -0.41590138       0.13979415       0.48983833 </v>
   <v>      -0.00826919      -0.27666412      -0.49032041 </v>
   <v>       0.15762752      -0.27557298      -0.48812981 </v>
   <v>      -0.49983684       0.05695397       0.49190360 </v>
   <v>      -0.17370846      -0.27709204      -0.49624529 </v>
   <v>       0.44158190       0.02909501      -0.46484277 </v>
   <v>      -0.25162048      -0.29306643      -0.46016391 </v>
   <v>       0.31758334      -0.26701562       0.47570142 </v>
   <v>       0.37499038      -0.28284312       0.44695367 </v>
   <v>       0.06666286      -0.24586800      -0.36437164 </v>
   <v>      -0.42527231       0.08782852       0.36527251 </v>
   <v>       0.17106522      -0.22967828      -0.44947957 </v>
   <v>      -0.07678003      -0.24882670       0.38044304 </v>
   <v>      -0.31480503       0.02925722       0.38277288 </v>
   <v>      -0.38974923       0.05000993       0.39529196 </v>
   <v>       0.09982393      -0.21160957      -0.40141251 </v>
   <v>      -0.44489134       0.02554481       0.44973305 </v>
   <v>      -0.18515826      -0.23221806       0.46282740 </v>
   <v>       0.43492459      -0.02594194      -0.46456975 </v>
   <v>      -0.33637221      -0.26829212      -0.46685112 </v>
   <v>       0.32668119      -0.22007791      -0.48732117 </v>
   <v>       0.38556554      -0.04541326      -0.43190504 </v>
   <v>      -0.11064577      -0.21460531       0.41738647 </v>
   <v>       0.25192132      -0.20050179      -0.45090788 </v>
   <v>      -0.39541517      -0.28341953      -0.43947610 </v>
   <v>      -0.44371723      -0.02958082       0.45296273 </v>
   <v>       0.08207363      -0.16359049      -0.40093148 </v>
   <v>       0.49462084      -0.05565607       0.49529277 </v>
   <v>      -0.26658971      -0.20345517       0.45971684 </v>
   <v>       0.49128787      -0.22069430      -0.49746055 </v>
   <v>      -0.34355373      -0.22236889       0.49394288 </v>
   <v>       0.41496099      -0.19126057      -0.48981657 </v>
   <v>      -0.09127437      -0.16689181       0.41871566 </v>
   <v>       0.25702619      -0.16379078      -0.42233383 </v>
   <v>      -0.39688298      -0.05191093       0.42108213 </v>
   <v>      -0.27039431      -0.16737346       0.42976781 </v>
   <v>      -0.43142822      -0.19288116       0.49266939 </v>
   <v>       0.49296568      -0.11439429       0.49775677 </v>
   <v>       0.41317663      -0.13795317      -0.48608419 </v>
   <v>      -0.42810166      -0.13998978       0.48404572 </v>
  </varray>
 </structure>
 <varray name="primitive_index" >
  <v type="int" >        1 </v>
  <v type="int" >       66 </v>
  <v type="int" >       65 </v>
  <v type="int" >        3 </v>
  <v type="int" >        2 </v>
  <v type="int" >       84 </v>
  <v type="int" >       80 </v>
  <v type="int" >       29 </v>
  <v type="int" >       67 </v>
  <v type="int" >       27 </v>
  <v type="int" >       81 </v>
  <v type="int" >       61 </v>
  <v type="int" >       62 </v>
  <v type="int" >       74 </v>
  <v type="int" >       30 </v>
  <v type="int" >       26 </v>
  <v type="int" >       76 </v>
  <v type="int" >      104 </v>
  <v type="int" >       75 </v>
  <v type="int" >       85 </v>
  <v type="int" >       28 </v>
  <v type="int" >       95 </v>
  <v type="int" >       25 </v>
  <v type="int" >       77 </v>
  <v type="int" >       72 </v>
  <v type="int" >       23 </v>
  <v type="int" >       86 </v>
  <v type="int" >       41 </v>
  <v type="int" >      105 </v>
  <v type="int" >       57 </v>
  <v type="int" >        9 </v>
  <v type="int" >       58 </v>
  <v type="int" >       12 </v>
  <v type="int" >       20 </v>
  <v type="int" >       42 </v>
  <v type="int" >       78 </v>
  <v type="int" >       71 </v>
  <v type="int" >       47 </v>
  <v type="int" >       69 </v>
  <v type="int" >       90 </v>
  <v type="int" >       51 </v>
  <v type="int" >       52 </v>
  <v type="int" >       48 </v>
  <v type="int" >       79 </v>
  <v type="int" >       37 </v>
  <v type="int" >       18 </v>
  <v type="int" >        5 </v>
  <v type="int" >       10 </v>
  <v type="int" >        7 </v>
  <v type="int" >        4 </v>
  <v type="int" >       16 </v>
  <v type="int" >       38 </v>
  <v type="int" >       43 </v>
  <v type="int" >       56 </v>
  <v type="int" >       44 </v>
  <v type="int" >       22 </v>
  <v type="int" >       55 </v>
  <v type="int" >       92 </v>
  <v type="int" >       70 </v>
  <v type="int" >       68 </v>
  <v type="int" >       91 </v>
  <v type="int" >       40 </v>
  <v type="int" >       39 </v>
  <v type="int" >       53 </v>
  <v type="int" >        8 </v>
  <v type="int" >      100 </v>
  <v type="int" >       54 </v>
  <v type="int" >       21 </v>
  <v type="int" >        6 </v>
  <v type="int" >       17 </v>
  <v type="int" >      101 </v>
  <v type="int" >       83 </v>
  <v type="int" >      108 </v>
  <v type="int" >       73 </v>
  <v type="int" >       97 </v>
  <v type="int" >       99 </v>
  <v type="int" >       34 </v>
  <v type="int" >       49 </v>
  <v type="int" >       45 </v>
  <v type="int" >       93 </v>
  <v type="int" >       59 </v>
  <v type="int" >       46 </v>
  <v type="int" >       11 </v>
  <v type="int" >       19 </v>
  <v type="int" >       82 </v>
  <v type="int" >      107 </v>
  <v type="int" >       96 </v>
  <v type="int" >       63 </v>
  <v type="int" >       98 </v>
  <v type="int" >       32 </v>
  <v type="int" >       24 </v>
  <v type="int" >       94 </v>
  <v type="int" >       33 </v>
  <v type="int" >      103 </v>
  <v type="int" >       50 </v>
  <v type="int" >      102 </v>
  <v type="int" >       64 </v>
  <v type="int" >       14 </v>
  <v type="int" >      106 </v>
  <v type="int" >       89 </v>
  <v type="int" >       60 </v>
  <v type="int" >       31 </v>
  <v type="int" >       35 </v>
  <v type="int" >       36 </v>
  <v type="int" >       88 </v>
  <v type="int" >       87 </v>
  <v type="int" >       15 </v>
  <v type="int" >       13 </v>
 </varray>
 <kpoints>
  <generation param="listgenerated">
   <i name="divisions" type="int">      20 </i>
   <v>       0.00000000       0.00000000       0.00000000 </v>
   <v>       0.50000000       0.00000000       0.00000000 </v>
   <v>       0.50000000       0.50000000       0.00000000 </v>
   <v>       0.00000000       0.50000000       0.00000000 </v>
   <v>       0.00000000       0.00000000       0.00000000 </v>
  </generation>
  <varray name="kpointlist" >
   <v>       0.00000000       0.00000000       0.00000000 </v>
   <v>       0.02631579       0.00000000       0.00000000 </v>
   <v>       0.05263158       0.00000000       0.00000000 </v>
   <v>       0.07894737       0.00000000       0.00000000 </v>
   <v>       0.10526316       0.00000000       0.00000000 </v>
   <v>       0.13157895       0.00000000       0.00000000 </v>
   <v>       0.15789474       0.00000000       0.00000000 </v>
   <v>       0.18421053       0.00000000       0.00000000 </v>
   <v>       0.21052632       0.00000000       0.00000000 </v>
   <v>       0.23684211       0.00000000       0.00000000 </v>
   <v>       0.26315789       0.00000000       0.00000000 </v>
   <v>       0.28947368       0.00000000       0.00000000 </v>
   <v>       0.31578947       0.00000000       0.00000000 </v>
   <v>       0.34210526       0.00000000       0.00000000 </v>
   <v>       0.36842105       0.00000000       0.00000000 </v>
   <v>       0.39473684       0.00000000       0.00000000 </v>
   <v>       0.42105263       0.00000000       0.00000000 </v>
   <v>       0.44736842       0.00000000       0.00000000 </v>
   <v>       0.47368421       0.00000000       0.00000000 </v>
   <v>       0.50000000       0.00000000       0.00000000 </v>
   <v>       0.50000000       0.00000000       0.00000000 </v>
   <v>       0.50000000       0.02631579       0.00000000 </v>
   <v>       0.50000000       0.05263158       0.00000000 </v>
   <v>       0.50000000       0.07894737       0.00000000 </v>
   <v>       0.50000000       0.10526316       0.00000000 </v>
   <v>       0.50000000       0.13157895       0.00000000 </v>
   <v>       0.50000000       0.15789474       0.00000000 </v>
   <v>       0.50000000       0.18421053       0.00000000 </v>
   <v>       0.50000000       0.21052632       0.00000000 </v>
   <v>       0.50000000       0.23684211       0.00000000 </v>
   <v>       0.50000000       0.26315789       0.00000000 </v>
   <v>       0.50000000       0.28947368       0.00000000 </v>
   <v>       0.50000000       0.31578947       0.00000000 </v>
   <v>       0.50000000       0.34210526       0.00000000 </v>
   <v>       0.50000000       0.36842105       0.00000000 </v>
   <v>       0.50000000       0.39473684       0.00000000 </v>
   <v>       0.50000000       0.42105263       0.00000000 </v>
   <v>       0.50000000       0.44736842       0.00000000 </v>
   <v>       0.50000000       0.47368421       0.00000000 </v>
   <v>       0.50000000       0.50000000       0.00000000 </v>
   <v>       0.50000000       0.50000000       0.00000000 </v>
   <v>       0.47368421       0.50000000       0.00000000 </v>
   <v>       0.44736842       0.50000000       0.00000000 </v>
   <v>       0.42105263       0.50000000       0.00000000 </v>
   <v>       0.39473684       0.50000000       0.00000000 </v>
   <v>       0.36842105       0.50000000       0.00000000 </v>
   <v>       0.34210526       0.50000000       0.00000000 </v>
   <v>       0.31578947       0.50000000       0.00000000 </v>
   <v>       0.28947368       0.50000000       0.00000000 </v>
   <v>       0.26315789       0.50000000       0.00000000 </v>
   <v>       0.23684211       0.50000000       0.00000000 </v>
   <v>       0.21052632       0.50000000       0.00000000 </v>
   <v>       0.18421053       0.50000000       0.00000000 </v>
   <v>       0.15789474       0.50000000       0.00000000 </v>
   <v>       0.13157895       0.50000000       0.00000000 </v>
   <v>       0.10526316       0.50000000       0.00000000 </v>
   <v>       0.07894737       0.50000000       0.00000000 </v>
   <v>       0.05263158       0.50000000       0.00000000 </v>
   <v>       0.02631579       0.50000000       0.00000000 </v>
   <v>       0.00000000       0.50000000       0.00000000 </v>
   <v>       0.00000000       0.50000000       0.00000000 </v>
   <v>       0.00000000       0.47368421       0.00000000 </v>
   <v>       0.00000000       0.44736842       0.00000000 </v>
   <v>       0.00000000       0.42105263       0.00000000 </v>
   <v>       0.00000000       0.39473684       0.00000000 </v>
   <v>       0.00000000       0.36842105       0.00000000 </v>
   <v>       0.00000000       0.34210526       0.00000000 </v>
   <v>       0.00000000       0.31578947       0.00000000 </v>
   <v>       0.00000000       0.28947368       0.00000000 </v>
   <v>       0.00000000       0.26315789       0.00000000 </v>
   <v>       0.00000000       0.23684211       0.00000000 </v>
   <v>       0.00000000       0.21052632       0.00000000 </v>
   <v>       0.00000000       0.18421053       0.00000000 </v>
   <v>       0.00000000       0.15789474       0.00000000 </v>
   <v>       0.00000000       0.13157895       0.00000000 </v>
   <v>       0.00000000       0.10526316       0.00000000 </v>
   <v>       0.00000000       0.07894737       0.00000000 </v>
   <v>       0.00000000       0.05263158       0.00000000 </v>
   <v>       0.00000000       0.02631579       0.00000000 </v>
   <v>       0.00000000       0.00000000       0.00000000 </v>
  </varray>
  <varray name="weights" >
   <v>       0.01250000 </v>
   <v>       0.01250000 </v>
   <v>       0.01250000 </v>
   <v>       0.01250000 </v>
   <v>       0.01250000 </v>
   <v>       0.01250000 </v>
   <v>       0.01250000 </v>
   <v>       0.01250000 </v>
   <v>       0.01250000 </v>
   <v>       0.01250000 </v>
   <v>       0.01250000 </v>
   <v>       0.01250000 </v>
   <v>       0.01250000 </v>
   <v>       0.01250000 </v>
   <v>       0.01250000 </v>
   <v>       0.01250000 </v>
   <v>       0.01250000 </v>
   <v>       0.01250000 </v>
   <v>       0.01250000 </v>
   <v>       0.01250000 </v>
   <v>       0.01250000 </v>
   <v>       0.01250000 </v>
   <v>       0.01250000 </v>
   <v>       0.01250000 </v>
   <v>       0.01250000 </v>
   <v>       0.01250000 </v>
   <v>       0.01250000 </v>
   <v>       0.01250000 </v>
   <v>       0.01250000 </v>
   <v>       0.01250000 </v>
   <v>       0.01250000 </v>
   <v>       0.01250000 </v>
   <v>       0.01250000 </v>
   <v>       0.01250000 </v>
   <v>       0.01250000 </v>
   <v>       0.01250000 </v>
   <v>       0.01250000 </v>
   <v>       0.01250000 </v>
   <v>       0.01250000 </v>
   <v>       0.01250000 </v>
   <v>       0.01250000 </v>
   <v>       0.01250000 </v>
   <v>       0.01250000 </v>
   <v>       0.01250000 </v>
   <v>       0.01250000 </v>
   <v>       0.01250000 </v>
   <v>       0.01250000 </v>
   <v>       0.01250000 </v>
   <v>       0.01250000 </v>
   <v>       0.01250000 </v>
   <v>       0.01250000 </v>
   <v>       0.01250000 </v>
   <v>       0.01250000 </v>
   <v>       0.01250000 </v>
   <v>       0.01250000 </v>
   <v>       0.01250000 </v>
   <v>       0.01250000 </v>
   <v>       0.01250000 </v>
   <v>       0.01250000 </v>
   <v>       0.01250000 </v>
   <v>       0.01250000 </v>
   <v>       0.01250000 </v>
   <v>       0.01250000 </v>
   <v>       0.01250000 </v>
   <v>       0.01250000 </v>
   <v>       0.01250000 </v>
   <v>       0.01250000 </v>
   <v>       0.01250000 </v>
   <v>       0.01250000 </v>
   <v>       0.01250000 </v>
   <v>       0.01250000 </v>
   <v>       0.01250000 </v>
   <v>       0.01250000 </v>
   <v>       0.01250000 </v>
   <v>       0.01250000 </v>
   <v>       0.01250000 </v>
   <v>       0.01250000 </v>
   <v>       0.01250000 </v>
   <v>       0.01250000 </v>
   <v>       0.01250000 </v>
  </varray>
 </kpoints>
 <parameters>
  <separator name="general" >
   <i type="string" name="SYSTEM">Simulation for cell shape cell volume r</i>
   <i type="logical" name="LCOMPAT"> F  </i>
  </separator>
  <separator name="electronic" >
   <i type="string" name="PREC">high</i>
   <i name="ENMAX">    500.00000000</i>
   <i name="ENAUG">    644.87300000</i>
   <i name="EDIFF">      0.00001000</i>
   <i type="int" name="IALGO">    38</i>
   <i type="int" name="IWAVPR">    10</i>
   <i type="int" name="NBANDS">   304</i>
   <i name="NELECT">    468.00000000</i>
   <i type="int" name="TURBO">     0</i>
   <i type="int" name="IRESTART">     0</i>
   <i type="int" name="NREBOOT">     0</i>
   <i type="int" name="NMIN">     0</i>
   <i name="EREF">      0.00000000</i>
   <separator name="electronic smearing" >
    <i type="int" name="ISMEAR">     0</i>
    <i name="SIGMA">      0.01000000</i>
    <i name="KSPACING">      0.50000000</i>
    <i type="logical" name="KGAMMA"> T  </i>
   </separator>
   <separator name="electronic projectors" >
    <i type="logical" name="LREAL"> T  </i>
    <v name="ROPT">     -0.00040000     -0.00040000     -0.00040000     -0.00040000</v>
    <i type="int" name="LMAXPAW">  -100</i>
    <i type="int" name="LMAXMIX">     2</i>
    <i type="logical" name="NLSPLINE"> F  </i>
   </separator>
   <separator name="electronic startup" >
    <i type="int" name="ISTART">     1</i>
    <i type="int" name="ICHARG">    11</i>
    <i type="int" name="INIWAV">     1</i>
   </separator>
   <separator name="electronic spin" >
    <i type="int" name="ISPIN">     1</i>
    <i type="logical" name="LNONCOLLINEAR"> F  </i>
    <v name="MAGMOM">      1.00000000      1.00000000      1.00000000      1.00000000      1.00000000      1.00000000      1.00000000      1.00000000      1.00000000      1.00000000      1.00000000      1.00000000      1.00000000      1.00000000      1.00000000      1.00000000      1.00000000      1.00000000      1.00000000      1.00000000
      1.00000000      1.00000000      1.00000000      1.00000000      1.00000000      1.00000000      1.00000000      1.00000000      1.00000000      1.00000000      1.00000000      1.00000000      1.00000000      1.00000000      1.00000000      1.00000000      1.00000000      1.00000000      1.00000000      1.00000000
      1.00000000      1.00000000      1.00000000      1.00000000      1.00000000      1.00000000      1.00000000      1.00000000      1.00000000      1.00000000      1.00000000      1.00000000      1.00000000      1.00000000      1.00000000      1.00000000      1.00000000      1.00000000      1.00000000      1.00000000
      1.00000000      1.00000000      1.00000000      1.00000000      1.00000000      1.00000000      1.00000000      1.00000000      1.00000000      1.00000000      1.00000000      1.00000000      1.00000000      1.00000000      1.00000000      1.00000000      1.00000000      1.00000000      1.00000000      1.00000000
      1.00000000      1.00000000      1.00000000      1.00000000      1.00000000      1.00000000      1.00000000      1.00000000      1.00000000      1.00000000      1.00000000      1.00000000      1.00000000      1.00000000      1.00000000      1.00000000      1.00000000      1.00000000      1.00000000      1.00000000
      1.00000000      1.00000000      1.00000000      1.00000000      1.00000000      1.00000000      1.00000000      1.00000000</v>
    <i name="NUPDOWN">     -1.00000000</i>
    <i type="logical" name="LSORBIT"> F  </i>
    <v name="SAXIS">      0.00000000      0.00000000      1.00000000</v>
    <i type="logical" name="LSPIRAL"> F  </i>
    <v name="QSPIRAL">      0.00000000      0.00000000      0.00000000</v>
    <i type="logical" name="LZEROZ"> F  </i>
   </separator>
   <separator name="electronic exchange-correlation" >
    <i type="logical" name="LASPH"> F  </i>
    <i type="logical" name="LMETAGGA"> F  </i>
   </separator>
   <separator name="electronic convergence" >
    <i type="int" name="NELM">   200</i>
    <i type="int" name="NELMDL">     0</i>
    <i type="int" name="NELMIN">     2</i>
    <i name="ENINI">    500.00000000</i>
    <separator name="electronic convergence detail" >
     <i type="logical" name="LDIAG"> T  </i>
     <i type="logical" name="LSUBROT"> F  </i>
     <i name="WEIMIN">      0.00000000</i>
     <i name="EBREAK">      0.00000001</i>
     <i name="DEPER">      0.30000000</i>
     <i type="int" name="NRMM">     4</i>
     <i name="TIME">      0.40000000</i>
    </separator>
   </separator>
   <separator name="electronic mixer" >
    <i name="AMIX">      0.40000000</i>
    <i name="BMIX">      1.00000000</i>
    <i name="AMIN">      0.10000000</i>
    <i name="AMIX_MAG">      1.60000000</i>
    <i name="BMIX_MAG">      1.00000000</i>
    <separator name="electronic mixer details" >
     <i type="int" name="IMIX">     4</i>
     <i type="logical" name="MIXFIRST"> F  </i>
     <i type="int" name="MAXMIX">   -45</i>
     <i name="WC">    100.00000000</i>
     <i type="int" name="INIMIX">     1</i>
     <i type="int" name="MIXPRE">     1</i>
     <i type="int" name="MREMOVE">     5</i>
    </separator>
   </separator>
   <separator name="electronic dipolcorrection" >
    <i type="logical" name="LDIPOL"> F  </i>
    <i type="logical" name="LMONO"> F  </i>
    <i type="int" name="IDIPOL">     0</i>
    <i name="EPSILON">      1.00000000</i>
    <v name="DIPOL">   -100.00000000   -100.00000000   -100.00000000</v>
    <i name="EFIELD">      0.00000000</i>
   </separator>
  </separator>
  <separator name="grids" >
   <i type="int" name="NGX">   108</i>
   <i type="int" name="NGY">   192</i>
   <i type="int" name="NGZ">   150</i>
   <i type="int" name="NGXF">   160</i>
   <i type="int" name="NGYF">   280</i>
   <i type="int" name="NGZF">   224</i>
   <i type="logical" name="ADDGRID"> F  </i>
  </separator>
  <separator name="ionic" >
   <i type="int" name="NSW">     0</i>
   <i type="int" name="IBRION">    -1</i>
   <i type="int" name="MDALGO">     0</i>
   <i type="int" name="ISIF">     2</i>
   <i name="PSTRESS">      0.00000000</i>
   <i name="EDIFFG">     -0.01000000</i>
   <i type="int" name="NFREE">     0</i>
   <i name="POTIM">      0.30000000</i>
   <i name="SMASS">     -3.00000000</i>
   <i name="SCALEE">      1.00000000</i>
  </separator>
  <separator name="ionic md" >
   <i name="TEBEG">      0.00010000</i>
   <i name="TEEND">      0.00010000</i>
   <i type="int" name="NBLOCK">     1</i>
   <i type="int" name="KBLOCK">     1</i>
   <i type="int" name="NPACO">   256</i>
   <i name="APACO">     16.00000000</i>
  </separator>
  <separator name="symmetry" >
   <i type="int" name="ISYM">     2</i>
   <i name="SYMPREC">      0.00001000</i>
  </separator>
  <separator name="dos" >
   <i type="int" name="LORBIT">     0</i>
   <v name="RWIGS">     -1.00000000     -1.00000000     -1.00000000     -1.00000000</v>
   <i type="int" name="NEDOS">   301</i>
   <i name="EMIN">     10.00000000</i>
   <i name="EMAX">    -10.00000000</i>
   <i name="EFERMI">      0.00000000</i>
  </separator>
  <separator name="writing" >
   <i type="int" name="NWRITE">     0</i>
   <i type="logical" name="LWAVE"> F  </i>
   <i type="logical" name="LDOWNSAMPLE"> F  </i>
   <i type="logical" name="LCHARG"> F  </i>
   <i type="logical" name="LPARD"> F  </i>
   <i type="logical" name="LVTOT"> F  </i>
   <i type="logical" name="LVHAR"> F  </i>
   <i type="logical" name="LELF"> F  </i>
   <i type="logical" name="LOPTICS"> F  </i>
   <v name="STM">      0.00000000      0.00000000      0.00000000      0.00000000      0.00000000      0.00000000      0.00000000</v>
  </separator>
  <separator name="performance" >
   <i type="int" name="NPAR">    16</i>
   <i type="int" name="NSIM">     4</i>
   <i type="int" name="NBLK">    -1</i>
   <i type="logical" name="LPLANE"> T  </i>
   <i type="logical" name="LSCALAPACK"> T  </i>
   <i type="logical" name="LSCAAWARE"> F  </i>
   <i type="logical" name="LSCALU"> F  </i>
   <i type="logical" name="LASYNC"> F  </i>
   <i type="logical" name="LORBITALREAL"> F  </i>
  </separator>
  <separator name="miscellaneous" >
   <i type="int" name="IDIOT">     3</i>
   <i type="int" name="ISPECIAL">     0</i>
   <i type="logical" name="LMUSIC"> F  </i>
   <v name="POMASS">     14.00100000      1.00000000     16.00000000     12.01100000</v>
   <v name="DARWINR">      0.00000000      0.00000000      0.00000000      0.00000000</v>
   <v name="DARWINV">      1.00000000      1.00000000      1.00000000      1.00000000</v>
   <i type="logical" name="LCORR"> T  </i>
  </separator>
  <i type="logical" name="GGA_COMPAT"> T  </i>
  <i type="logical" name="LBERRY"> F  </i>
  <i type="int" name="ICORELEVEL">     0</i>
  <i type="logical" name="LDAU"> F  </i>
  <i type="int" name="I_CONSTRAINED_M">     0</i>
  <separator name="electronic exchange-correlation" >
   <i type="string" name="GGA">PE</i>
   <i type="int" name="VOSKOWN">     0</i>
   <i type="logical" name="LHFCALC"> F  </i>
   <i type="string" name="PRECFOCK"></i>
   <i type="logical" name="LSYMGRAD"> F  </i>
   <i type="logical" name="LHFONE"> F  </i>
   <i type="logical" name="LRHFCALC"> F  </i>
   <i type="logical" name="LTHOMAS"> F  </i>
   <i type="logical" name="LMODELHF"> F  </i>
   <i name="ENCUT4O">     -1.00000000</i>
   <i type="int" name="EXXOEP">     0</i>
   <i type="int" name="FOURORBIT">     0</i>
   <i name="AEXX">      0.00000000</i>
   <i name="HFALPHA">      0.00000000</i>
   <i name="MCALPHA">      0.00000000</i>
   <i name="ALDAX">      1.00000000</i>
   <i name="AGGAX">      1.00000000</i>
   <i name="ALDAC">      1.00000000</i>
   <i name="AGGAC">      1.00000000</i>
   <i type="int" name="NKREDX">     1</i>
   <i type="int" name="NKREDY">     1</i>
   <i type="int" name="NKREDZ">     1</i>
   <i type="logical" name="SHIFTRED"> F  </i>
   <i type="logical" name="ODDONLY"> F  </i>
   <i type="logical" name="EVENONLY"> F  </i>
   <i type="int" name="LMAXFOCK">     0</i>
   <i type="int" name="NMAXFOCKAE">     0</i>
   <i type="logical" name="LFOCKAEDFT"> F  </i>
   <i name="HFSCREEN">      0.00000000</i>
   <i name="HFSCREENC">      0.00000000</i>
   <i type="int" name="NBANDSGWLOW">     0</i>
  </separator>
  <separator name="vdW DFT" >
   <i type="logical" name="LUSE_VDW"> F  </i>
   <i name="Zab_VDW">     -0.84910000</i>
   <i name="PARAM1">      0.12340000</i>
   <i name="PARAM2">      1.00000000</i>
   <i name="PARAM3">      0.00000000</i>
  </separator>
  <separator name="model GW" >
   <i type="int" name="MODEL_GW">     0</i>
   <i name="MODEL_EPS0">     40.72020992</i>
   <i name="MODEL_ALPHA">      1.00000000</i>
  </separator>
  <separator name="linear response parameters" >
   <i type="logical" name="LEPSILON"> F  </i>
   <i type="logical" name="LRPA"> F  </i>
   <i type="logical" name="LNABLA"> F  </i>
   <i type="logical" name="LVEL"> F  </i>
   <i type="int" name="KINTER">     0</i>
   <i name="CSHIFT">      0.10000000</i>
   <i name="OMEGAMAX">     -1.00000000</i>
   <i name="DEG_THRESHOLD">      0.00200000</i>
   <i name="RTIME">     -0.10000000</i>
   <i name="WPLASMAI">      0.00000000</i>
   <v name="DFIELD">      0.00000000      0.00000000      0.00000000</v>
   <v name="WPLASMA">      0.00000000      0.00000000      0.00000000      0.00000000      0.00000000      0.00000000      0.00000000      0.00000000      0.00000000</v>
  </separator>
  <separator name="orbital magnetization" >
   <i type="logical" name="NUCIND"> F  </i>
   <v name="MAGPOS">      0.00000000      0.00000000      0.00000000</v>
   <i type="logical" name="LNICSALL"> T  </i>
   <i type="logical" name="ORBITALMAG"> F  </i>
   <i type="logical" name="LMAGBLOCH"> F  </i>
   <i type="logical" name="LCHIMAG"> F  </i>
   <i type="logical" name="LGAUGE"> T  </i>
   <i type="int" name="MAGATOM">     0</i>
   <v name="MAGDIPOL">      0.00000000      0.00000000      0.00000000</v>
   <v name="AVECCONST">      0.00000000      0.00000000      0.00000000</v>
  </separator>
  <separator name="response functions" >
   <i type="logical" name="LADDER"> F  </i>
   <i type="logical" name="LRPAFORCE"> F  </i>
   <i type="logical" name="LFXC"> F  </i>
   <i type="logical" name="LHARTREE"> T  </i>
   <i type="int" name="IBSE">     0</i>
   <v type="int" name="KPOINT">    -1     0     0     0</v>
   <i type="logical" name="LTCTE"> F  </i>
   <i type="logical" name="LTETE"> F  </i>
   <i type="logical" name="LTRIPLET"> F  </i>
   <i type="logical" name="LFXCEPS"> F  </i>
   <i type="logical" name="LFXHEG"> F  </i>
   <i type="int" name="NATURALO">     2</i>
   <i type="logical" name="L2ORDER"> F  </i>
   <i type="logical" name="LMP2LT"> F  </i>
   <i type="logical" name="LUSEW"> F  </i>
   <i name="ENCUTGW">     -2.00000000</i>
   <i name="ENCUTGWSOFT">     -2.00000000</i>
   <i name="ENCUTLF">     -1.00000000</i>
   <i type="int" name="LMAXMP2">    -1</i>
   <i name="SCISSOR">      0.00000000</i>
   <i type="int" name="NOMEGA">     0</i>
   <i type="int" name="NOMEGAR">     0</i>
   <i type="int" name="NBANDSGW">    -1</i>
   <i type="int" name="NBANDSO">    -1</i>
   <i type="int" name="NBANDSV">    -1</i>
   <i type="int" name="NELM">   200</i>
   <i type="int" name="NELMHF">     1</i>
   <i type="int" name="DIM">     3</i>
   <i type="int" name="ANTIRES">     0</i>
   <i name="OMEGAMAX">    -30.00000000</i>
   <i name="OMEGAMIN">    -30.00000000</i>
   <i name="OMEGATL">   -200.00000000</i>
   <i type="int" name="OMEGAGRID">   140</i>
   <i name="CSHIFT">     -0.10000000</i>
   <i type="logical" name="SELFENERGY"> F  </i>
   <i type="logical" name="LSPECTRAL"> F  </i>
   <i type="logical" name="LSPECTRALGW"> F  </i>
   <i type="logical" name="LSINGLES"> F  </i>
   <i type="logical" name="LFERMIGW"> F  </i>
   <i type="logical" name="ODDONLYGW"> F  </i>
   <i type="logical" name="EVENONLYGW"> F  </i>
   <i type="int" name="NKREDLFX">     1</i>
   <i type="int" name="NKREDLFY">     1</i>
   <i type="int" name="NKREDLFZ">     1</i>
   <i type="int" name="MAXMEM">  2800</i>
   <i type="int" name="TELESCOPE">     0</i>
   <i type="int" name="TAUPAR">     1</i>
   <i type="int" name="OMEGAPAR">    -1</i>
   <i name="LAMBDA">      1.00000000</i>
  </separator>
  <separator name="External order field" >
   <i name="OFIELD_KAPPA">      0.00000000</i>
   <v name="OFIELD_K">      0.00000000      0.00000000      0.00000000</v>
   <i name="OFIELD_Q6_NEAR">      0.00000000</i>
   <i name="OFIELD_Q6_FAR">      0.00000000</i>
   <i name="OFIELD_A">      0.00000000</i>
  </separator>
  <separator name="solvation model" >
   <i type="logical" name="LSOL"> F  </i>
  </separator>
 </parameters>
 <atominfo>
  <atoms>     108 </atoms>
  <types>       4 </types>
  <array name="atoms" >
   <dimension dim="1">ion</dimension>
   <field type="string">element</field>
   <field type="int">atomtype</field>
   <set>
    <rc><c>N </c><c>   1</c></rc>
    <rc><c>N </c><c>   1</c></rc>
    <rc><c>N </c><c>   1</c></rc>
    <rc><c>N </c><c>   1</c></rc>
    <rc><c>N </c><c>   1</c></rc>
    <rc><c>N </c><c>   1</c></rc>
    <rc><c>N </c><c>   1</c></rc>
    <rc><c>N </c><c>   1</c></rc>
    <rc><c>N </c><c>   1</c></rc>
    <rc><c>N </c><c>   1</c></rc>
    <rc><c>N </c><c>   1</c></rc>
    <rc><c>N </c><c>   1</c></rc>
    <rc><c>N </c><c>   1</c></rc>
    <rc><c>N </c><c>   1</c></rc>
    <rc><c>N </c><c>   1</c></rc>
    <rc><c>N </c><c>   1</c></rc>
    <rc><c>N </c><c>   1</c></rc>
    <rc><c>N </c><c>   1</c></rc>
    <rc><c>N </c><c>   1</c></rc>
    <rc><c>N </c><c>   1</c></rc>
    <rc><c>N </c><c>   1</c></rc>
    <rc><c>N </c><c>   1</c></rc>
    <rc><c>N </c><c>   1</c></rc>
    <rc><c>N </c><c>   1</c></rc>
    <rc><c>H </c><c>   2</c></rc>
    <rc><c>H </c><c>   2</c></rc>
    <rc><c>H </c><c>   2</c></rc>
    <rc><c>H </c><c>   2</c></rc>
    <rc><c>H </c><c>   2</c></rc>
    <rc><c>H </c><c>   2</c></rc>
    <rc><c>H </c><c>   2</c></rc>
    <rc><c>H </c><c>   2</c></rc>
    <rc><c>H </c><c>   2</c></rc>
    <rc><c>H </c><c>   2</c></rc>
    <rc><c>H </c><c>   2</c></rc>
    <rc><c>H </c><c>   2</c></rc>
    <rc><c>O </c><c>   3</c></rc>
    <rc><c>O </c><c>   3</c></rc>
    <rc><c>O </c><c>   3</c></rc>
    <rc><c>O </c><c>   3</c></rc>
    <rc><c>O </c><c>   3</c></rc>
    <rc><c>O </c><c>   3</c></rc>
    <rc><c>O </c><c>   3</c></rc>
    <rc><c>O </c><c>   3</c></rc>
    <rc><c>O </c><c>   3</c></rc>
    <rc><c>O </c><c>   3</c></rc>
    <rc><c>O </c><c>   3</c></rc>
    <rc><c>O </c><c>   3</c></rc>
    <rc><c>O </c><c>   3</c></rc>
    <rc><c>O </c><c>   3</c></rc>
    <rc><c>O </c><c>   3</c></rc>
    <rc><c>O </c><c>   3</c></rc>
    <rc><c>O </c><c>   3</c></rc>
    <rc><c>O </c><c>   3</c></rc>
    <rc><c>O </c><c>   3</c></rc>
    <rc><c>O </c><c>   3</c></rc>
    <rc><c>O </c><c>   3</c></rc>
    <rc><c>O </c><c>   3</c></rc>
    <rc><c>O </c><c>   3</c></rc>
    <rc><c>O </c><c>   3</c></rc>
    <rc><c>C </c><c>   4</c></rc>
    <rc><c>C </c><c>   4</c></rc>
    <rc><c>C </c><c>   4</c></rc>
    <rc><c>C </c><c>   4</c></rc>
    <rc><c>C </c><c>   4</c></rc>
    <rc><c>C </c><c>   4</c></rc>
    <rc><c>C </c><c>   4</c></rc>
    <rc><c>C </c><c>   4</c></rc>
    <rc><c>C </c><c>   4</c></rc>
    <rc><c>C </c><c>   4</c></rc>
    <rc><c>C </c><c>   4</c></rc>
    <rc><c>C </c><c>   4</c></rc>
    <rc><c>C </c><c>   4</c></rc>
    <rc><c>C </c><c>   4</c></rc>
    <rc><c>C </c><c>   4</c></rc>
    <rc><c>C </c><c>   4</c></rc>
    <rc><c>C </c><c>   4</c></rc>
    <rc><c>C </c><c>   4</c></rc>
    <rc><c>C </c><c>   4</c></rc>
    <rc><c>C </c><c>   4</c></rc>
    <rc><c>C </c><c>   4</c></rc>
    <rc><c>C </c><c>   4</c></rc>
    <rc><c>C </c><c>   4</c></rc>
    <rc><c>C </c><c>   4</c></rc>
    <rc><c>C </c><c>   4</c></rc>
    <rc><c>C </c><c>   4</c></rc>
    <rc><c>C </c><c>   4</c></rc>
    <rc><c>C </c><c>   4</c></rc>
    <rc><c>C </c><c>   4</c></rc>
    <rc><c>C </c><c>   4</c></rc>
    <rc><c>C </c><c>   4</c></rc>
    <rc><c>C </c><c>   4</c></rc>
    <rc><c>C </c><c>   4</c></rc>
    <rc><c>C </c><c>   4</c></rc>
    <rc><c>C </c><c>   4</c></rc>
    <rc><c>C </c><c>   4</c></rc>
    <rc><c>C </c><c>   4</c></rc>
    <rc><c>C </c><c>   4</c></rc>
    <rc><c>C </c><c>   4</c></rc>
    <rc><c>C </c><c>   4</c></rc>
    <rc><c>C </c><c>   4</c></rc>
    <rc><c>C </c><c>   4</c></rc>
    <rc><c>C </c><c>   4</c></rc>
    <rc><c>C </c><c>   4</c></rc>
    <rc><c>C </c><c>   4</c></rc>
    <rc><c>C </c><c>   4</c></rc>
    <rc><c>C </c><c>   4</c></rc>
    <rc><c>C </c><c>   4</c></rc>
   </set>
  </array>
  <array name="atomtypes" >
   <dimension dim="1">type</dimension>
   <field type="int">atomspertype</field>
   <field type="string">element</field>
   <field>mass</field>
   <field>valence</field>
   <field type="string">pseudopotential</field>
   <set>
    <rc><c>  24</c><c>N </c><c>     14.00100000</c><c>      5.00000000</c><c>  PAW_PBE N 08Apr2002                   </c></rc>
    <rc><c>  12</c><c>H </c><c>      1.00000000</c><c>      1.00000000</c><c>  PAW_PBE H 15Jun2001                   </c></rc>
    <rc><c>  24</c><c>O </c><c>     16.00000000</c><c>      6.00000000</c><c>  PAW_PBE O 08Apr2002                   </c></rc>
    <rc><c>  48</c><c>C </c><c>     12.01100000</c><c>      4.00000000</c><c>  PAW_PBE C 08Apr2002                   </c></rc>
   </set>
  </array>
 </atominfo>
 <structure name="initialpos" >
  <crystal>
   <varray name="basis" >
    <v>      14.56515393       0.02369600       0.00000000 </v>
    <v>       0.04078005      25.16161912       0.00000000 </v>
    <v>       0.00000000       0.00000000      20.00000000 </v>
   </varray>
   <i name="volume">   7329.63778619 </i>
   <varray name="rec_basis" >
    <v>       0.06865720      -0.00011127       0.00000000 </v>
    <v>      -0.00006466       0.03974318       0.00000000 </v>
    <v>       0.00000000       0.00000000       0.05000000 </v>
   </varray>
  </crystal>
  <varray name="positions" >
   <v>       0.08227151       0.36130532       0.51402029 </v>
   <v>       0.00451791       0.28005949       0.49086152 </v>
   <v>       0.92094439       0.36125949       0.49438600 </v>
   <v>       0.42098799       0.14091242       0.49359701 </v>
   <v>       0.50404450       0.22206499       0.49436360 </v>
   <v>       0.58409862       0.13979415       0.48983833 </v>
   <v>       0.59241310       0.30851184       0.45485932 </v>
   <v>       0.38660043       0.05762372       0.58644808 </v>
   <v>       0.38949930       0.27702424       0.59698788 </v>
   <v>       0.76131498       0.14053793       0.52311933 </v>
   <v>       0.61025077       0.05000993       0.39529196 </v>
   <v>       0.27765584       0.17190634       0.40044973 </v>
   <v>       0.57189834       0.86001022       0.48404572 </v>
   <v>       0.49128787       0.77930570       0.50253945 </v>
   <v>       0.41317663       0.86204683       0.51391581 </v>
   <v>       0.91205416       0.64095267       0.50858602 </v>
   <v>       0.99173081       0.72333588       0.50967959 </v>
   <v>       0.07483131       0.64184860       0.51182011 </v>
   <v>       0.09982393       0.78839043       0.59858749 </v>
   <v>       0.83973781       0.55233142       0.45460890 </v>
   <v>       0.75476109       0.66507024       0.59205690 </v>
   <v>       0.22362235       0.66456681       0.42319814 </v>
   <v>       0.15012051       0.55424331       0.56800559 </v>
   <v>       0.88935423       0.78539469       0.41738647 </v>
   <v>       0.75537857       0.34777110       0.46638779 </v>
   <v>       0.86106377       0.45079496       0.46974094 </v>
   <v>       0.23393999       0.32796054       0.57831516 </v>
   <v>       0.90162015       0.20238012       0.50920738 </v>
   <v>       0.13659791       0.45237461       0.54903263 </v>
   <v>       0.12494926       0.22402740       0.42546794 </v>
   <v>       0.25702619       0.83620922       0.57766617 </v>
   <v>       0.38556554       0.95458674       0.56809496 </v>
   <v>       0.60458483       0.71658047       0.56052390 </v>
   <v>       0.37499038       0.71715688       0.44695367 </v>
   <v>       0.60311702       0.94808907       0.42108213 </v>
   <v>       0.72960569       0.83262654       0.42976781 </v>
   <v>       0.56481568       0.34180388       0.49545021 </v>
   <v>       0.56308821       0.30090404       0.39778024 </v>
   <v>       0.42786530       0.09012958       0.62160492 </v>
   <v>       0.30500871       0.04498437       0.59122881 </v>
   <v>       0.39839874       0.32407439       0.61308799 </v>
   <v>       0.42873821       0.23849836       0.62289708 </v>
   <v>       0.79408667       0.10935435       0.48193050 </v>
   <v>       0.73891271       0.13057355       0.58126211 </v>
   <v>       0.57472769       0.08782852       0.36527251 </v>
   <v>       0.68519497       0.02925722       0.38277288 </v>
   <v>       0.21423009       0.14022530       0.39161085 </v>
   <v>       0.34901916       0.17508037       0.36721572 </v>
   <v>       0.06666286       0.75413200       0.63562836 </v>
   <v>       0.08207363       0.83640951       0.59906852 </v>
   <v>       0.76569297       0.54679826       0.48362716 </v>
   <v>       0.85270069       0.57359073       0.39980078 </v>
   <v>       0.82209159       0.66700457       0.62969051 </v>
   <v>       0.69055379       0.63331640       0.59536565 </v>
   <v>       0.15499042       0.66630759       0.38681098 </v>
   <v>       0.28683373       0.63190114       0.42017993 </v>
   <v>       0.22547732       0.54892675       0.54067048 </v>
   <v>       0.13418222       0.57642168       0.62185981 </v>
   <v>       0.92321997       0.75117330       0.38044304 </v>
   <v>       0.90872563       0.83310819       0.41871566 </v>
   <v>       0.24121954       0.29477695       0.54375064 </v>
   <v>       0.18053010       0.23673082       0.45813984 </v>
   <v>       0.66362779       0.73170788       0.53314888 </v>
   <v>       0.73341029       0.79654483       0.45971684 </v>
   <v>       0.00090458       0.38603412       0.50601314 </v>
   <v>       0.08044533       0.30871018       0.50260435 </v>
   <v>       0.92580938       0.30809125       0.49061841 </v>
   <v>       0.50226177       0.11599358       0.49144080 </v>
   <v>       0.42645841       0.19398281       0.49522869 </v>
   <v>       0.58130486       0.19304974       0.49112429 </v>
   <v>       0.67427513       0.27680838       0.47482966 </v>
   <v>       0.75573625       0.30513446       0.47561574 </v>
   <v>       0.44158190       0.02909501       0.53515723 </v>
   <v>       0.92089051       0.47240851       0.48754158 </v>
   <v>       0.32206239       0.26525742       0.54329155 </v>
   <v>       0.83851413       0.27840275       0.48761320 </v>
   <v>       0.83764677       0.22362699       0.49975468 </v>
   <v>       0.75439300       0.19708696       0.50208891 </v>
   <v>       0.66938784       0.22200281       0.48917626 </v>
   <v>       0.99900205       0.44477053       0.50918004 </v>
   <v>       0.07512185       0.47320617       0.53226146 </v>
   <v>       0.55510866       0.02554481       0.44973305 </v>
   <v>       0.50016316       0.05695397       0.49190360 </v>
   <v>       0.16905545       0.27970153       0.50179233 </v>
   <v>       0.26527519       0.21145419       0.45482326 </v>
   <v>       0.33819976       0.22379139       0.49784106 </v>
   <v>       0.49296568       0.88560571       0.49775677 </v>
   <v>       0.56857178       0.80711884       0.49266939 </v>
   <v>       0.41496099       0.80873943       0.51018343 </v>
   <v>       0.99393935       0.61663639       0.51074802 </v>
   <v>       0.91514735       0.69407335       0.50790454 </v>
   <v>       0.06955645       0.69489482       0.51136507 </v>
   <v>       0.17106522       0.77032172       0.55052043 </v>
   <v>       0.25192132       0.79949821       0.54909212 </v>
   <v>       0.92127580       0.52750268       0.48686368 </v>
   <v>       0.43492459       0.97405806       0.53543025 </v>
   <v>       0.74837952       0.70693357       0.53983609 </v>
   <v>       0.32668119       0.77992209       0.51267883 </v>
   <v>       0.31758334       0.73298438       0.47570142 </v>
   <v>       0.23300469       0.70786233       0.47328156 </v>
   <v>       0.15762752       0.72442702       0.51187019 </v>
   <v>       0.49462084       0.94434393       0.49529277 </v>
   <v>       0.55628277       0.97041918       0.45296273 </v>
   <v>       0.07081891       0.52826663       0.53479108 </v>
   <v>       0.99522539       0.55786523       0.51107604 </v>
   <v>       0.65644627       0.77763111       0.49394288 </v>
   <v>       0.81484174       0.76778194       0.46282740 </v>
   <v>       0.82629154       0.72290796       0.50375471 </v>
  </varray>
 </structure>
 <calculation>
  <scstep>
   <time name="dav">  215.04  216.73</time>
   <time name="total">  215.17  216.88</time>
   <energy>
    <i name="alphaZ">    133.31910980 </i>
    <i name="ewald">  58948.50706418 </i>
    <i name="hartreedc"> -78871.99350496 </i>
    <i name="XCdc">   1853.48948839 </i>
    <i name="pawpsdc">  44375.37850399 </i>
    <i name="pawaedc"> -44486.73621846 </i>
    <i name="eentropy">     -0.00000000 </i>
    <i name="bandstr">  -6686.74523899 </i>
    <i name="atom">  23938.35221612 </i>
    <i name="e_fr_energy">   -796.42857994 </i>
    <i name="e_wo_entrp">   -796.42857994 </i>
    <i name="e_0_energy">   -796.42857994 </i>
   </energy>
  </scstep>
  <scstep>
   <time name="dav">  236.62  238.48</time>
   <time name="total">  236.64  238.49</time>
   <energy>
    <i name="e_fr_energy">   -798.35824293 </i>
    <i name="e_wo_entrp">   -798.35824293 </i>
    <i name="e_0_energy">   -798.35824293 </i>
   </energy>
  </scstep>
  <scstep>
   <time name="dav">  261.64  263.68</time>
   <time name="total">  261.65  263.70</time>
   <energy>
    <i name="e_fr_energy">   -798.41404980 </i>
    <i name="e_wo_entrp">   -798.41404980 </i>
    <i name="e_0_energy">   -798.41404980 </i>
   </energy>
  </scstep>
  <scstep>
   <time name="dav">  233.23  235.06</time>
   <time name="total">  233.25  235.08</time>
   <energy>
    <i name="e_fr_energy">   -798.41521982 </i>
    <i name="e_wo_entrp">   -798.41521982 </i>
    <i name="e_0_energy">   -798.41521982 </i>
   </energy>
  </scstep>
  <scstep>
   <time name="dav">  235.77  237.62</time>
   <time name="total">  235.79  237.64</time>
   <energy>
    <i name="e_fr_energy">   -798.41528084 </i>
    <i name="e_wo_entrp">   -798.41528084 </i>
    <i name="e_0_energy">   -798.41528084 </i>
   </energy>
  </scstep>
  <scstep>
   <time name="dav">  185.44  186.88</time>
   <time name="total">  185.45  186.90</time>
   <energy>
    <i name="alphaZ">    133.31910980 </i>
    <i name="ewald">  58948.50706418 </i>
    <i name="hartreedc"> -78871.99350496 </i>
    <i name="XCdc">   1853.48948839 </i>
    <i name="pawpsdc">  44375.37850399 </i>
    <i name="pawaedc"> -44486.73621846 </i>
    <i name="eentropy">     -0.00000000 </i>
    <i name="bandstr">  -6688.73194216 </i>
    <i name="atom">  23938.35221612 </i>
    <i name="e_fr_energy">   -798.41528310 </i>
    <i name="e_wo_entrp">   -798.41528310 </i>
    <i name="e_0_energy">   -798.41528310 </i>
   </energy>
  </scstep>
  <structure>
   <crystal>
    <varray name="basis" >
     <v>      14.56515393       0.02369600       0.00000000 </v>
     <v>       0.04078005      25.16161912       0.00000000 </v>
     <v>       0.00000000       0.00000000      20.00000000 </v>
    </varray>
    <i name="volume">   7329.63778619 </i>
    <varray name="rec_basis" >
     <v>       0.06865720      -0.00011127       0.00000000 </v>
     <v>      -0.00006466       0.03974318       0.00000000 </v>
     <v>       0.00000000       0.00000000       0.05000000 </v>
    </varray>
   </crystal>
   <varray name="positions" >
    <v>       0.08227151       0.36130532       0.51402029 </v>
    <v>       0.00451791       0.28005949       0.49086152 </v>
    <v>       0.92094439       0.36125949       0.49438600 </v>
    <v>       0.42098799       0.14091242       0.49359701 </v>
    <v>       0.50404450       0.22206499       0.49436360 </v>
    <v>       0.58409862       0.13979415       0.48983833 </v>
    <v>       0.59241310       0.30851184       0.45485932 </v>
    <v>       0.38660043       0.05762372       0.58644808 </v>
    <v>       0.38949930       0.27702424       0.59698788 </v>
    <v>       0.76131498       0.14053793       0.52311933 </v>
    <v>       0.61025077       0.05000993       0.39529196 </v>
    <v>       0.27765584       0.17190634       0.40044973 </v>
    <v>       0.57189834       0.86001022       0.48404572 </v>
    <v>       0.49128787       0.77930570       0.50253945 </v>
    <v>       0.41317663       0.86204683       0.51391581 </v>
    <v>       0.91205416       0.64095267       0.50858602 </v>
    <v>       0.99173081       0.72333588       0.50967959 </v>
    <v>       0.07483131       0.64184860       0.51182011 </v>
    <v>       0.09982393       0.78839043       0.59858749 </v>
    <v>       0.83973781       0.55233142       0.45460890 </v>
    <v>       0.75476109       0.66507024       0.59205690 </v>
    <v>       0.22362235       0.66456681       0.42319814 </v>
    <v>       0.15012051       0.55424331       0.56800559 </v>
    <v>       0.88935423       0.78539469       0.41738647 </v>
    <v>       0.75537857       0.34777110       0.46638779 </v>
    <v>       0.86106377       0.45079496       0.46974094 </v>
    <v>       0.23393999       0.32796054       0.57831516 </v>
    <v>       0.90162015       0.20238012       0.50920738 </v>
    <v>       0.13659791       0.45237461       0.54903263 </v>
    <v>       0.12494926       0.22402740       0.42546794 </v>
    <v>       0.25702619       0.83620922       0.57766617 </v>
    <v>       0.38556554       0.95458674       0.56809496 </v>
    <v>       0.60458483       0.71658047       0.56052390 </v>
    <v>       0.37499038       0.71715688       0.44695367 </v>
    <v>       0.60311702       0.94808907       0.42108213 </v>
    <v>       0.72960569       0.83262654       0.42976781 </v>
    <v>       0.56481568       0.34180388       0.49545021 </v>
    <v>       0.56308821       0.30090404       0.39778024 </v>
    <v>       0.42786530       0.09012958       0.62160492 </v>
    <v>       0.30500871       0.04498437       0.59122881 </v>
    <v>       0.39839874       0.32407439       0.61308799 </v>
    <v>       0.42873821       0.23849836       0.62289708 </v>
    <v>       0.79408667       0.10935435       0.48193050 </v>
    <v>       0.73891271       0.13057355       0.58126211 </v>
    <v>       0.57472769       0.08782852       0.36527251 </v>
    <v>       0.68519497       0.02925722       0.38277288 </v>
    <v>       0.21423009       0.14022530       0.39161085 </v>
    <v>       0.34901916       0.17508037       0.36721572 </v>
    <v>       0.06666286       0.75413200       0.63562836 </v>
    <v>       0.08207363       0.83640951       0.59906852 </v>
    <v>       0.76569297       0.54679826       0.48362716 </v>
    <v>       0.85270069       0.57359073       0.39980078 </v>
    <v>       0.82209159       0.66700457       0.62969051 </v>
    <v>       0.69055379       0.63331640       0.59536565 </v>
    <v>       0.15499042       0.66630759       0.38681098 </v>
    <v>       0.28683373       0.63190114       0.42017993 </v>
    <v>       0.22547732       0.54892675       0.54067048 </v>
    <v>       0.13418222       0.57642168       0.62185981 </v>
    <v>       0.92321997       0.75117330       0.38044304 </v>
    <v>       0.90872563       0.83310819       0.41871566 </v>
    <v>       0.24121954       0.29477695       0.54375064 </v>
    <v>       0.18053010       0.23673082       0.45813984 </v>
    <v>       0.66362779       0.73170788       0.53314888 </v>
    <v>       0.73341029       0.79654483       0.45971684 </v>
    <v>       0.00090458       0.38603412       0.50601314 </v>
    <v>       0.08044533       0.30871018       0.50260435 </v>
    <v>       0.92580938       0.30809125       0.49061841 </v>
    <v>       0.50226177       0.11599358       0.49144080 </v>
    <v>       0.42645841       0.19398281       0.49522869 </v>
    <v>       0.58130486       0.19304974       0.49112429 </v>
    <v>       0.67427513       0.27680838       0.47482966 </v>
    <v>       0.75573625       0.30513446       0.47561574 </v>
    <v>       0.44158190       0.02909501       0.53515723 </v>
    <v>       0.92089051       0.47240851       0.48754158 </v>
    <v>       0.32206239       0.26525742       0.54329155 </v>
    <v>       0.83851413       0.27840275       0.48761320 </v>
    <v>       0.83764677       0.22362699       0.49975468 </v>
    <v>       0.75439300       0.19708696       0.50208891 </v>
    <v>       0.66938784       0.22200281       0.48917626 </v>
    <v>       0.99900205       0.44477053       0.50918004 </v>
    <v>       0.07512185       0.47320617       0.53226146 </v>
    <v>       0.55510866       0.02554481       0.44973305 </v>
    <v>       0.50016316       0.05695397       0.49190360 </v>
    <v>       0.16905545       0.27970153       0.50179233 </v>
    <v>       0.26527519       0.21145419       0.45482326 </v>
    <v>       0.33819976       0.22379139       0.49784106 </v>
    <v>       0.49296568       0.88560571       0.49775677 </v>
    <v>       0.56857178       0.80711884       0.49266939 </v>
    <v>       0.41496099       0.80873943       0.51018343 </v>
    <v>       0.99393935       0.61663639       0.51074802 </v>
    <v>       0.91514735       0.69407335       0.50790454 </v>
    <v>       0.06955645       0.69489482       0.51136507 </v>
    <v>       0.17106522       0.77032172       0.55052043 </v>
    <v>       0.25192132       0.79949821       0.54909212 </v>
    <v>       0.92127580       0.52750268       0.48686368 </v>
    <v>       0.43492459       0.97405806       0.53543025 </v>
    <v>       0.74837952       0.70693357       0.53983609 </v>
    <v>       0.32668119       0.77992209       0.51267883 </v>
    <v>       0.31758334       0.73298438       0.47570142 </v>
    <v>       0.23300469       0.70786233       0.47328156 </v>
    <v>       0.15762752       0.72442702       0.51187019 </v>
    <v>       0.49462084       0.94434393       0.49529277 </v>
    <v>       0.55628277       0.97041918       0.45296273 </v>
    <v>       0.07081891       0.52826663       0.53479108 </v>
    <v>       0.99522539       0.55786523       0.51107604 </v>
    <v>       0.65644627       0.77763111       0.49394288 </v>
    <v>       0.81484174       0.76778194       0.46282740 </v>
    <v>       0.82629154       0.72290796       0.50375471 </v>
   </varray>
  </structure>
  <varray name="forces" >
   <v>      -0.00215541      -0.00036718       0.00004616 </v>
   <v>      -0.00107535       0.00328318      -0.00055608 </v>
   <v>      -0.00037154      -0.00246220       0.00012335 </v>
   <v>      -0.00045208       0.00066057       0.00005671 </v>
   <v>       0.00171208       0.00170365       0.00152915 </v>
   <v>       0.00088245      -0.00124043       0.00359521 </v>
   <v>      -0.00086236      -0.00148391       0.00109223 </v>
   <v>       0.00025426      -0.00127810      -0.00165261 </v>
   <v>       0.00154323       0.00082304      -0.00096391 </v>
   <v>       0.00289618       0.00070919      -0.00034037 </v>
   <v>       0.00280350      -0.00104278      -0.00001334 </v>
   <v>       0.00120915       0.00054140      -0.00011263 </v>
   <v>       0.00386351      -0.00338599       0.00164586 </v>
   <v>      -0.00247578      -0.00180373      -0.00252451 </v>
   <v>      -0.00089109       0.00208662       0.00010871 </v>
   <v>      -0.00359087       0.00835838      -0.00077989 </v>
   <v>       0.00204470      -0.00298925       0.00087410 </v>
   <v>      -0.00396168      -0.00105625      -0.00053986 </v>
   <v>      -0.00054417      -0.00663615       0.00256242 </v>
   <v>      -0.00263646      -0.00078979      -0.00120993 </v>
   <v>       0.00273017      -0.00265804       0.00064695 </v>
   <v>       0.00051825      -0.00290646       0.00216914 </v>
   <v>       0.00474684      -0.00225405      -0.00607755 </v>
   <v>       0.00107853       0.00193787      -0.00190259 </v>
   <v>      -0.00131527       0.00054902      -0.00003494 </v>
   <v>       0.00135028      -0.00096459      -0.00016924 </v>
   <v>      -0.00061836       0.00049454       0.00015676 </v>
   <v>      -0.00116076       0.00072691       0.00095909 </v>
   <v>      -0.00070582      -0.00220026       0.00034329 </v>
   <v>      -0.00054705       0.00002772      -0.00077976 </v>
   <v>       0.00176422       0.00190716      -0.00056111 </v>
   <v>       0.00162422       0.00069464      -0.00087123 </v>
   <v>       0.00138418       0.00077427      -0.00106849 </v>
   <v>      -0.00072570      -0.00068975      -0.00107579 </v>
   <v>       0.00177855      -0.00006748      -0.00048603 </v>
   <v>       0.00156164       0.00158688       0.00026288 </v>
   <v>      -0.00007883      -0.00033389      -0.00054038 </v>
   <v>       0.00030732       0.00063219       0.00287494 </v>
   <v>      -0.00109122      -0.00033593      -0.00018433 </v>
   <v>       0.00169025       0.00177375       0.00277223 </v>
   <v>       0.00159434      -0.00072104      -0.00077705 </v>
   <v>      -0.00116825       0.00170566       0.00007938 </v>
   <v>       0.00207083      -0.00257433       0.00485619 </v>
   <v>      -0.00129820       0.00005935       0.00432272 </v>
   <v>      -0.00104393       0.00167428      -0.00219019 </v>
   <v>      -0.00314687       0.00112129      -0.00095005 </v>
   <v>      -0.00039303      -0.00067693       0.00206763 </v>
   <v>      -0.00417727       0.00043088       0.00003776 </v>
   <v>       0.00130567       0.00543363      -0.00453434 </v>
   <v>      -0.00058374       0.00190632       0.00069864 </v>
   <v>       0.00369101      -0.00340549      -0.00428313 </v>
   <v>       0.00120555      -0.00175690       0.00019367 </v>
   <v>      -0.00019718       0.00183904      -0.00039688 </v>
   <v>       0.00063114      -0.00000609      -0.00298057 </v>
   <v>      -0.00084745       0.00082312       0.00045685 </v>
   <v>       0.00046008      -0.00303933       0.00206476 </v>
   <v>      -0.00566890       0.00114724      -0.00040052 </v>
   <v>      -0.00086697       0.00288306       0.00533041 </v>
   <v>       0.00074762       0.00125590       0.00007402 </v>
   <v>       0.00160023      -0.00468768      -0.00197245 </v>
   <v>      -0.00057831      -0.00045331      -0.00012721 </v>
   <v>      -0.00227186       0.00016837      -0.00097955 </v>
   <v>      -0.00124327       0.00053097      -0.00159696 </v>
   <v>      -0.00040016       0.00111182      -0.00045707 </v>
   <v>       0.00146556       0.00040029      -0.00004619 </v>
   <v>      -0.00063726      -0.00011013       0.00013464 </v>
   <v>       0.00202835      -0.00095066      -0.00034813 </v>
   <v>       0.00136866       0.00081429      -0.00069209 </v>
   <v>      -0.00351973      -0.00104778       0.00056940 </v>
   <v>       0.00022514      -0.00167791      -0.00004359 </v>
   <v>       0.00067125       0.00141136       0.00090761 </v>
   <v>      -0.00082507      -0.00007504      -0.00040831 </v>
   <v>       0.00035324      -0.00074411       0.00129026 </v>
   <v>      -0.00234087       0.00045571       0.00010201 </v>
   <v>       0.00031558       0.00063344      -0.00037559 </v>
   <v>      -0.00036187      -0.00176921       0.00074676 </v>
   <v>       0.00266296       0.00037692       0.00012618 </v>
   <v>       0.00007278      -0.00143331      -0.00036384 </v>
   <v>      -0.00118348       0.00144557       0.00004064 </v>
   <v>      -0.00210831      -0.00044649       0.00024489 </v>
   <v>      -0.00350746      -0.00001698      -0.00087063 </v>
   <v>       0.00007566       0.00177506      -0.00000196 </v>
   <v>       0.00047789      -0.00083112       0.00122642 </v>
   <v>       0.00024880       0.00011034       0.00144064 </v>
   <v>       0.00081548       0.00025970       0.00130658 </v>
   <v>       0.00131720       0.00105038       0.00162724 </v>
   <v>      -0.00483968       0.00028641       0.00192284 </v>
   <v>       0.00231441       0.00257109      -0.00131207 </v>
   <v>      -0.00028195      -0.00280012      -0.00319609 </v>
   <v>       0.00600636      -0.00134285      -0.00030675 </v>
   <v>       0.00082104      -0.00460217      -0.00175961 </v>
   <v>      -0.00027580       0.00145594       0.00061673 </v>
   <v>      -0.00023606       0.00218962      -0.00085147 </v>
   <v>      -0.00065597      -0.00180961       0.00038936 </v>
   <v>       0.00047541       0.00001112      -0.00134660 </v>
   <v>      -0.00022041       0.00082478       0.00012358 </v>
   <v>      -0.00128349       0.00297939      -0.00295923 </v>
   <v>      -0.00036728       0.00220813       0.00232706 </v>
   <v>       0.00140549      -0.00127098      -0.00015147 </v>
   <v>       0.00196046      -0.00098754       0.00075535 </v>
   <v>      -0.00114397      -0.00162520       0.00022971 </v>
   <v>       0.00007988       0.00057334      -0.00046193 </v>
   <v>      -0.00004472      -0.00047721       0.00120962 </v>
   <v>      -0.00162480       0.00153737       0.00275737 </v>
   <v>      -0.00369856      -0.00052095      -0.00155837 </v>
   <v>       0.00130460       0.00085618      -0.00186647 </v>
   <v>       0.00067630       0.00292372       0.00154203 </v>
   <v>       0.00010942       0.00029463      -0.00062720 </v>
  </varray>
  <varray name="stress" >
   <v>      -0.00532220      -0.00531307      -0.00074588 </v>
   <v>      -0.00531306      -0.01078356       0.01391683 </v>
   <v>      -0.00074587       0.01391684      -0.46942910 </v>
  </varray>
  <energy>
   <i name="e_fr_energy">   -801.46863088 </i>
   <i name="e_wo_entrp">   -801.46863088 </i>
   <i name="e_0_energy">     -0.00000000 </i>
  </energy>
  <time name="totalsc"> 1513.80 1526.00</time>
  <eigenvalues>
   <array>
    <dimension dim="1">band</dimension>
    <dimension dim="2">kpoint</dimension>
    <dimension dim="3">spin</dimension>
    <field>eigene</field>
    <field>occ</field>
    <set>
     <set comment="spin 1">
      <set comment="kpoint 1">
       <r>  -30.6890    1.0000 </r>
       <r>  -30.6831    1.0000 </r>
       <r>  -30.6749    1.0000 </r>
       <r>  -30.6721    1.0000 </r>
       <r>  -30.6656    1.0000 </r>
       <r>  -30.6644    1.0000 </r>
       <r>  -30.6584    1.0000 </r>
       <r>  -30.6361    1.0000 </r>
       <r>  -30.6342    1.0000 </r>
       <r>  -30.6291    1.0000 </r>
       <r>  -30.6132    1.0000 </r>
       <r>  -30.6101    1.0000 </r>
       <r>  -26.3637    1.0000 </r>
       <r>  -26.3543    1.0000 </r>
       <r>  -26.3435    1.0000 </r>
       <r>  -26.3322    1.0000 </r>
       <r>  -26.3265    1.0000 </r>
       <r>  -26.3233    1.0000 </r>
       <r>  -26.3182    1.0000 </r>
       <r>  -26.3032    1.0000 </r>
       <r>  -26.2948    1.0000 </r>
       <r>  -26.2872    1.0000 </r>
       <r>  -26.2747    1.0000 </r>
       <r>  -26.2735    1.0000 </r>
       <r>  -26.1663    1.0000 </r>
       <r>  -26.1259    1.0000 </r>
       <r>  -26.0824    1.0000 </r>
       <r>  -26.0602    1.0000 </r>
       <r>  -23.3848    1.0000 </r>
       <r>  -23.3693    1.0000 </r>
       <r>  -23.3609    1.0000 </r>
       <r>  -23.3108    1.0000 </r>
       <r>  -23.2350    1.0000 </r>
       <r>  -23.1608    1.0000 </r>
       <r>  -23.1438    1.0000 </r>
       <r>  -23.1345    1.0000 </r>
       <r>  -22.6725    1.0000 </r>
       <r>  -22.5746    1.0000 </r>
       <r>  -22.4609    1.0000 </r>
       <r>  -22.4197    1.0000 </r>
       <r>  -22.3966    1.0000 </r>
       <r>  -22.3734    1.0000 </r>
       <r>  -20.6640    1.0000 </r>
       <r>  -20.6617    1.0000 </r>
       <r>  -20.6503    1.0000 </r>
       <r>  -20.6460    1.0000 </r>
       <r>  -20.6305    1.0000 </r>
       <r>  -20.6195    1.0000 </r>
       <r>  -20.3356    1.0000 </r>
       <r>  -20.3056    1.0000 </r>
       <r>  -20.2966    1.0000 </r>
       <r>  -20.2636    1.0000 </r>
       <r>  -20.1914    1.0000 </r>
       <r>  -20.1191    1.0000 </r>
       <r>  -18.6020    1.0000 </r>
       <r>  -18.5999    1.0000 </r>
       <r>  -18.5759    1.0000 </r>
       <r>  -18.4765    1.0000 </r>
       <r>  -18.0542    1.0000 </r>
       <r>  -18.0290    1.0000 </r>
       <r>  -17.8652    1.0000 </r>
       <r>  -17.8355    1.0000 </r>
       <r>  -17.8286    1.0000 </r>
       <r>  -17.8074    1.0000 </r>
       <r>  -17.4954    1.0000 </r>
       <r>  -17.4625    1.0000 </r>
       <r>  -17.3513    1.0000 </r>
       <r>  -17.3418    1.0000 </r>
       <r>  -17.2843    1.0000 </r>
       <r>  -17.2292    1.0000 </r>
       <r>  -17.0442    1.0000 </r>
       <r>  -16.5799    1.0000 </r>
       <r>  -16.5734    1.0000 </r>
       <r>  -16.5280    1.0000 </r>
       <r>  -16.4662    1.0000 </r>
       <r>  -15.7478    1.0000 </r>
       <r>  -15.0306    1.0000 </r>
       <r>  -14.9133    1.0000 </r>
       <r>  -14.8920    1.0000 </r>
       <r>  -14.6911    1.0000 </r>
       <r>  -14.6818    1.0000 </r>
       <r>  -14.6769    1.0000 </r>
       <r>  -14.6430    1.0000 </r>
       <r>  -14.5938    1.0000 </r>
       <r>  -14.4028    1.0000 </r>
       <r>  -14.3484    1.0000 </r>
       <r>  -14.3448    1.0000 </r>
       <r>  -14.2009    1.0000 </r>
       <r>  -14.0496    1.0000 </r>
       <r>  -14.0232    1.0000 </r>
       <r>  -13.9455    1.0000 </r>
       <r>  -13.7436    1.0000 </r>
       <r>  -13.7279    1.0000 </r>
       <r>  -13.5941    1.0000 </r>
       <r>  -13.4559    1.0000 </r>
       <r>  -13.4415    1.0000 </r>
       <r>  -13.4101    1.0000 </r>
       <r>  -13.4005    1.0000 </r>
       <r>  -13.3984    1.0000 </r>
       <r>  -13.3846    1.0000 </r>
       <r>  -13.2264    1.0000 </r>
       <r>  -13.2035    1.0000 </r>
       <r>  -13.1604    1.0000 </r>
       <r>  -13.0921    1.0000 </r>
       <r>  -13.0153    1.0000 </r>
       <r>  -12.9415    1.0000 </r>
       <r>  -12.8138    1.0000 </r>
       <r>  -12.8063    1.0000 </r>
       <r>  -12.7963    1.0000 </r>
       <r>  -12.7794    1.0000 </r>
       <r>  -12.7444    1.0000 </r>
       <r>  -12.7002    1.0000 </r>
       <r>  -12.6556    1.0000 </r>
       <r>  -12.6463    1.0000 </r>
       <r>  -12.6254    1.0000 </r>
       <r>  -12.5394    1.0000 </r>
       <r>  -12.4903    1.0000 </r>
       <r>  -12.4801    1.0000 </r>
       <r>  -12.4780    1.0000 </r>
       <r>  -12.4417    1.0000 </r>
       <r>  -12.4273    1.0000 </r>
       <r>  -12.4198    1.0000 </r>
       <r>  -12.4072    1.0000 </r>
       <r>  -12.3904    1.0000 </r>
       <r>  -12.3771    1.0000 </r>
       <r>  -12.3075    1.0000 </r>
       <r>  -12.2955    1.0000 </r>
       <r>  -12.2237    1.0000 </r>
       <r>  -12.1875    1.0000 </r>
       <r>  -12.1753    1.0000 </r>
       <r>  -12.1575    1.0000 </r>
       <r>  -12.1353    1.0000 </r>
       <r>  -12.1298    1.0000 </r>
       <r>  -12.0164    1.0000 </r>
       <r>  -11.9286    1.0000 </r>
       <r>  -11.9090    1.0000 </r>
       <r>  -11.7727    1.0000 </r>
       <r>  -11.7001    1.0000 </r>
       <r>  -11.6297    1.0000 </r>
       <r>  -11.6112    1.0000 </r>
       <r>  -11.5358    1.0000 </r>
       <r>  -11.4702    1.0000 </r>
       <r>  -11.4136    1.0000 </r>
       <r>  -11.3170    1.0000 </r>
       <r>  -11.1971    1.0000 </r>
       <r>  -10.9843    1.0000 </r>
       <r>  -10.9057    1.0000 </r>
       <r>  -10.8593    1.0000 </r>
       <r>  -10.6368    1.0000 </r>
       <r>  -10.4135    1.0000 </r>
       <r>  -10.3469    1.0000 </r>
       <r>  -10.2945    1.0000 </r>
       <r>  -10.2317    1.0000 </r>
       <r>  -10.1744    1.0000 </r>
       <r>  -10.1023    1.0000 </r>
       <r>  -10.0224    1.0000 </r>
       <r>   -9.9691    1.0000 </r>
       <r>   -9.9564    1.0000 </r>
       <r>   -9.9338    1.0000 </r>
       <r>   -9.8654    1.0000 </r>
       <r>   -9.8495    1.0000 </r>
       <r>   -9.7595    1.0000 </r>
       <r>   -9.7247    1.0000 </r>
       <r>   -9.7075    1.0000 </r>
       <r>   -9.6879    1.0000 </r>
       <r>   -9.6545    1.0000 </r>
       <r>   -9.5563    1.0000 </r>
       <r>   -9.4799    1.0000 </r>
       <r>   -9.2420    1.0000 </r>
       <r>   -9.1945    1.0000 </r>
       <r>   -9.1849    1.0000 </r>
       <r>   -9.1551    1.0000 </r>
       <r>   -9.0942    1.0000 </r>
       <r>   -8.9202    1.0000 </r>
       <r>   -8.6256    1.0000 </r>
       <r>   -8.4192    1.0000 </r>
       <r>   -8.4161    1.0000 </r>
       <r>   -8.3980    1.0000 </r>
       <r>   -7.8245    1.0000 </r>
       <r>   -7.7853    1.0000 </r>
       <r>   -7.6801    1.0000 </r>
       <r>   -7.6767    1.0000 </r>
       <r>   -7.6570    1.0000 </r>
       <r>   -7.6464    1.0000 </r>
       <r>   -7.5432    1.0000 </r>
       <r>   -7.5364    1.0000 </r>
       <r>   -7.5203    1.0000 </r>
       <r>   -7.5155    1.0000 </r>
       <r>   -7.5107    1.0000 </r>
       <r>   -7.4962    1.0000 </r>
       <r>   -7.4627    1.0000 </r>
       <r>   -7.4303    1.0000 </r>
       <r>   -7.4045    1.0000 </r>
       <r>   -7.3671    1.0000 </r>
       <r>   -7.3586    1.0000 </r>
       <r>   -7.3384    1.0000 </r>
       <r>   -7.2872    1.0000 </r>
       <r>   -7.1580    1.0000 </r>
       <r>   -7.1057    1.0000 </r>
       <r>   -7.0912    1.0000 </r>
       <r>   -7.0884    1.0000 </r>
       <r>   -7.0676    1.0000 </r>
       <r>   -7.0471    1.0000 </r>
       <r>   -7.0411    1.0000 </r>
       <r>   -7.0206    1.0000 </r>
       <r>   -6.9996    1.0000 </r>
       <r>   -6.9965    1.0000 </r>
       <r>   -6.9822    1.0000 </r>
       <r>   -6.8443    1.0000 </r>
       <r>   -6.8348    1.0000 </r>
       <r>   -6.8284    1.0000 </r>
       <r>   -6.8160    1.0000 </r>
       <r>   -6.7811    1.0000 </r>
       <r>   -6.7744    1.0000 </r>
       <r>   -6.6685    1.0000 </r>
       <r>   -6.6472    1.0000 </r>
       <r>   -6.6421    1.0000 </r>
       <r>   -6.6247    1.0000 </r>
       <r>   -6.5956    1.0000 </r>
       <r>   -6.5850    1.0000 </r>
       <r>   -6.5443    1.0000 </r>
       <r>   -6.5081    1.0000 </r>
       <r>   -6.4418    1.0000 </r>
       <r>   -6.4323    1.0000 </r>
       <r>   -6.4233    1.0000 </r>
       <r>   -6.4195    1.0000 </r>
       <r>   -6.4081    1.0000 </r>
       <r>   -6.4007    1.0000 </r>
       <r>   -6.3699    1.0000 </r>
       <r>   -6.3472    1.0000 </r>
       <r>   -6.3322    1.0000 </r>
       <r>   -6.3171    1.0000 </r>
       <r>   -6.2040    1.0000 </r>
       <r>   -6.1843    1.0000 </r>
       <r>   -3.8266    0.0000 </r>
       <r>   -3.7538    0.0000 </r>
       <r>   -3.7421    0.0000 </r>
       <r>   -3.5864    0.0000 </r>
       <r>   -3.3762    0.0000 </r>
       <r>   -3.2480    0.0000 </r>
       <r>   -3.2136    0.0000 </r>
       <r>   -3.1936    0.0000 </r>
       <r>   -3.1739    0.0000 </r>
       <r>   -3.1221    0.0000 </r>
       <r>   -2.9873    0.0000 </r>
       <r>   -2.9616    0.0000 </r>
       <r>   -2.9452    0.0000 </r>
       <r>   -2.9295    0.0000 </r>
       <r>   -2.8685    0.0000 </r>
       <r>   -2.8226    0.0000 </r>
       <r>   -2.7143    0.0000 </r>
       <r>   -2.4553    0.0000 </r>
       <r>   -2.4363    0.0000 </r>
       <r>   -2.4119    0.0000 </r>
       <r>   -2.1526    0.0000 </r>
       <r>   -1.8941    0.0000 </r>
       <r>   -1.8018    0.0000 </r>
       <r>   -1.6036    0.0000 </r>
       <r>   -1.5801    0.0000 </r>
       <r>   -1.5304    0.0000 </r>
       <r>   -1.5256    0.0000 </r>
       <r>   -1.4749    0.0000 </r>
       <r>   -0.9588    0.0000 </r>
       <r>   -0.6641    0.0000 </r>
       <r>   -0.5719    0.0000 </r>
       <r>   -0.4036    0.0000 </r>
       <r>   -0.1826    0.0000 </r>
       <r>   -0.0978    0.0000 </r>
       <r>    0.3653    0.0000 </r>
       <r>    0.4250    0.0000 </r>
       <r>    0.4784    0.0000 </r>
       <r>    0.5402    0.0000 </r>
       <r>    0.5923    0.0000 </r>
       <r>    0.6462    0.0000 </r>
       <r>    0.6822    0.0000 </r>
       <r>    0.7029    0.0000 </r>
       <r>    0.7286    0.0000 </r>
       <r>    0.7588    0.0000 </r>
       <r>    0.7618    0.0000 </r>
       <r>    0.8205    0.0000 </r>
       <r>    0.8294    0.0000 </r>
       <r>    0.9163    0.0000 </r>
       <r>    1.0102    0.0000 </r>
       <r>    1.0830    0.0000 </r>
       <r>    1.1180    0.0000 </r>
       <r>    1.1850    0.0000 </r>
       <r>    1.2056    0.0000 </r>
       <r>    1.2390    0.0000 </r>
       <r>    1.3225    0.0000 </r>
       <r>    1.3372    0.0000 </r>
       <r>    1.3637    0.0000 </r>
       <r>    1.4020    0.0000 </r>
       <r>    1.4406    0.0000 </r>
       <r>    1.4527    0.0000 </r>
       <r>    1.4573    0.0000 </r>
       <r>    1.4846    0.0000 </r>
       <r>    1.5246    0.0000 </r>
       <r>    1.5613    0.0000 </r>
       <r>    1.6669    0.0000 </r>
       <r>    1.7492    0.0000 </r>
       <r>    1.7598    0.0000 </r>
       <r>    1.7834    0.0000 </r>
       <r>    1.8243    0.0000 </r>
       <r>    1.8612    0.0000 </r>
      </set>
      <set comment="kpoint 2">
       <r>  -30.6890    1.0000 </r>
       <r>  -30.6830    1.0000 </r>
       <r>  -30.6749    1.0000 </r>
       <r>  -30.6721    1.0000 </r>
       <r>  -30.6656    1.0000 </r>
       <r>  -30.6644    1.0000 </r>
       <r>  -30.6584    1.0000 </r>
       <r>  -30.6361    1.0000 </r>
       <r>  -30.6341    1.0000 </r>
       <r>  -30.6291    1.0000 </r>
       <r>  -30.6132    1.0000 </r>
       <r>  -30.6101    1.0000 </r>
       <r>  -26.3637    1.0000 </r>
       <r>  -26.3543    1.0000 </r>
       <r>  -26.3435    1.0000 </r>
       <r>  -26.3322    1.0000 </r>
       <r>  -26.3265    1.0000 </r>
       <r>  -26.3233    1.0000 </r>
       <r>  -26.3182    1.0000 </r>
       <r>  -26.3032    1.0000 </r>
       <r>  -26.2948    1.0000 </r>
       <r>  -26.2872    1.0000 </r>
       <r>  -26.2746    1.0000 </r>
       <r>  -26.2735    1.0000 </r>
       <r>  -26.1663    1.0000 </r>
       <r>  -26.1259    1.0000 </r>
       <r>  -26.0824    1.0000 </r>
       <r>  -26.0602    1.0000 </r>
       <r>  -23.3847    1.0000 </r>
       <r>  -23.3693    1.0000 </r>
       <r>  -23.3608    1.0000 </r>
       <r>  -23.3107    1.0000 </r>
       <r>  -23.2353    1.0000 </r>
       <r>  -23.1610    1.0000 </r>
       <r>  -23.1438    1.0000 </r>
       <r>  -23.1346    1.0000 </r>
       <r>  -22.6721    1.0000 </r>
       <r>  -22.5744    1.0000 </r>
       <r>  -22.4612    1.0000 </r>
       <r>  -22.4197    1.0000 </r>
       <r>  -22.3966    1.0000 </r>
       <r>  -22.3735    1.0000 </r>
       <r>  -20.6639    1.0000 </r>
       <r>  -20.6616    1.0000 </r>
       <r>  -20.6502    1.0000 </r>
       <r>  -20.6460    1.0000 </r>
       <r>  -20.6305    1.0000 </r>
       <r>  -20.6195    1.0000 </r>
       <r>  -20.3357    1.0000 </r>
       <r>  -20.3057    1.0000 </r>
       <r>  -20.2965    1.0000 </r>
       <r>  -20.2635    1.0000 </r>
       <r>  -20.1916    1.0000 </r>
       <r>  -20.1193    1.0000 </r>
       <r>  -18.6017    1.0000 </r>
       <r>  -18.5995    1.0000 </r>
       <r>  -18.5757    1.0000 </r>
       <r>  -18.4765    1.0000 </r>
       <r>  -18.0542    1.0000 </r>
       <r>  -18.0291    1.0000 </r>
       <r>  -17.8652    1.0000 </r>
       <r>  -17.8354    1.0000 </r>
       <r>  -17.8286    1.0000 </r>
       <r>  -17.8075    1.0000 </r>
       <r>  -17.4954    1.0000 </r>
       <r>  -17.4626    1.0000 </r>
       <r>  -17.3523    1.0000 </r>
       <r>  -17.3406    1.0000 </r>
       <r>  -17.2844    1.0000 </r>
       <r>  -17.2293    1.0000 </r>
       <r>  -17.0452    1.0000 </r>
       <r>  -16.5900    1.0000 </r>
       <r>  -16.5768    1.0000 </r>
       <r>  -16.5272    1.0000 </r>
       <r>  -16.4521    1.0000 </r>
       <r>  -15.7468    1.0000 </r>
       <r>  -15.0315    1.0000 </r>
       <r>  -14.9133    1.0000 </r>
       <r>  -14.8920    1.0000 </r>
       <r>  -14.6916    1.0000 </r>
       <r>  -14.6823    1.0000 </r>
       <r>  -14.6773    1.0000 </r>
       <r>  -14.6430    1.0000 </r>
       <r>  -14.5940    1.0000 </r>
       <r>  -14.4028    1.0000 </r>
       <r>  -14.3484    1.0000 </r>
       <r>  -14.3447    1.0000 </r>
       <r>  -14.2006    1.0000 </r>
       <r>  -14.0495    1.0000 </r>
       <r>  -14.0232    1.0000 </r>
       <r>  -13.9458    1.0000 </r>
       <r>  -13.7443    1.0000 </r>
       <r>  -13.7282    1.0000 </r>
       <r>  -13.5960    1.0000 </r>
       <r>  -13.4622    1.0000 </r>
       <r>  -13.4381    1.0000 </r>
       <r>  -13.4078    1.0000 </r>
       <r>  -13.4019    1.0000 </r>
       <r>  -13.3949    1.0000 </r>
       <r>  -13.3826    1.0000 </r>
       <r>  -13.2266    1.0000 </r>
       <r>  -13.2037    1.0000 </r>
       <r>  -13.1604    1.0000 </r>
       <r>  -13.0923    1.0000 </r>
       <r>  -13.0150    1.0000 </r>
       <r>  -12.9414    1.0000 </r>
       <r>  -12.8137    1.0000 </r>
       <r>  -12.8063    1.0000 </r>
       <r>  -12.7962    1.0000 </r>
       <r>  -12.7794    1.0000 </r>
       <r>  -12.7443    1.0000 </r>
       <r>  -12.7003    1.0000 </r>
       <r>  -12.6555    1.0000 </r>
       <r>  -12.6464    1.0000 </r>
       <r>  -12.6254    1.0000 </r>
       <r>  -12.5394    1.0000 </r>
       <r>  -12.4903    1.0000 </r>
       <r>  -12.4801    1.0000 </r>
       <r>  -12.4781    1.0000 </r>
       <r>  -12.4417    1.0000 </r>
       <r>  -12.4273    1.0000 </r>
       <r>  -12.4197    1.0000 </r>
       <r>  -12.4072    1.0000 </r>
       <r>  -12.3902    1.0000 </r>
       <r>  -12.3766    1.0000 </r>
       <r>  -12.3075    1.0000 </r>
[...]
       <r>   -26.6992     0.0000    24.0000 </r>
       <r>   -26.5796     0.0000    24.0000 </r>
       <r>   -26.4600     0.0000    24.0000 </r>
       <r>   -26.3405    46.6933    29.5838 </r>
       <r>   -26.2209    66.8985    48.0000 </r>
       <r>   -26.1013    33.5090    52.0071 </r>
       <r>   -25.9817    16.7246    56.0000 </r>
       <r>   -25.8621     0.0000    56.0000 </r>
       <r>   -25.7425     0.0000    56.0000 </r>
       <r>   -25.6230     0.0000    56.0000 </r>
       <r>   -25.5034     0.0000    56.0000 </r>
       <r>   -25.3838     0.0000    56.0000 </r>
       <r>   -25.2642     0.0000    56.0000 </r>
       <r>   -25.1446     0.0000    56.0000 </r>
       <r>   -25.0250     0.0000    56.0000 </r>
       <r>   -24.9055     0.0000    56.0000 </r>
       <r>   -24.7859     0.0000    56.0000 </r>
       <r>   -24.6663     0.0000    56.0000 </r>
       <r>   -24.5467     0.0000    56.0000 </r>
       <r>   -24.4271     0.0000    56.0000 </r>
       <r>   -24.3075     0.0000    56.0000 </r>
       <r>   -24.1879     0.0000    56.0000 </r>
       <r>   -24.0684     0.0000    56.0000 </r>
       <r>   -23.9488     0.0000    56.0000 </r>
       <r>   -23.8292     0.0000    56.0000 </r>
       <r>   -23.7096     0.0000    56.0000 </r>
       <r>   -23.5900     0.0000    56.0000 </r>
       <r>   -23.4704     0.0000    56.0000 </r>
       <r>   -23.3509    39.4570    60.7184 </r>
       <r>   -23.2313    17.4579    65.5627 </r>
       <r>   -23.1117    42.6439    71.9995 </r>
       <r>   -22.9921     0.0000    72.0000 </r>
       <r>   -22.8725     0.0000    72.0000 </r>
       <r>   -22.7529     0.0000    72.0000 </r>
       <r>   -22.6334     7.0974    72.8487 </r>
       <r>   -22.5138    18.3971    76.0000 </r>
       <r>   -22.3942    40.6561    81.7368 </r>
       <r>   -22.2746     0.0000    84.0000 </r>
       <r>   -22.1550     0.0000    84.0000 </r>
       <r>   -22.0354     0.0000    84.0000 </r>
       <r>   -21.9158     0.0000    84.0000 </r>
       <r>   -21.7963     0.0000    84.0000 </r>
       <r>   -21.6767     0.0000    84.0000 </r>
       <r>   -21.5571     0.0000    84.0000 </r>
       <r>   -21.4375     0.0000    84.0000 </r>
       <r>   -21.3179     0.0000    84.0000 </r>
       <r>   -21.1983     0.0000    84.0000 </r>
       <r>   -21.0788     0.0000    84.0000 </r>
       <r>   -20.9592     0.0000    84.0000 </r>
       <r>   -20.8396     0.0000    84.0000 </r>
       <r>   -20.7200     0.0000    84.0000 </r>
       <r>   -20.6004   100.2901    95.9931 </r>
       <r>   -20.4808     0.0000    96.0000 </r>
       <r>   -20.3613     0.0086    96.0010 </r>
       <r>   -20.2417    43.0294   103.9956 </r>
       <r>   -20.1221    26.5216   107.7466 </r>
       <r>   -20.0025     0.0000   108.0000 </r>
       <r>   -19.8829     0.0000   108.0000 </r>
       <r>   -19.7633     0.0000   108.0000 </r>
       <r>   -19.6437     0.0000   108.0000 </r>
       <r>   -19.5242     0.0000   108.0000 </r>
       <r>   -19.4046     0.0000   108.0000 </r>
       <r>   -19.2850     0.0000   108.0000 </r>
       <r>   -19.1654     0.0000   108.0000 </r>
       <r>   -19.0458     0.0000   108.0000 </r>
       <r>   -18.9262     0.0000   108.0000 </r>
       <r>   -18.8067     0.0000   108.0000 </r>
       <r>   -18.6871     0.0000   108.0000 </r>
       <r>   -18.5675    32.3751   111.8716 </r>
       <r>   -18.4479    23.6193   115.9995 </r>
       <r>   -18.3283     0.0000   116.0000 </r>
       <r>   -18.2087     0.0000   116.0000 </r>
       <r>   -18.0892     0.0000   116.0000 </r>
       <r>   -17.9696    15.2612   120.0000 </r>
       <r>   -17.8500    15.9249   121.9044 </r>
       <r>   -17.7304     5.4355   128.0000 </r>
       <r>   -17.6108     0.0000   128.0000 </r>
       <r>   -17.4912    10.2734   129.2285 </r>
       <r>   -17.3716     4.9723   132.5946 </r>
       <r>   -17.2521    28.9350   138.7352 </r>
       <r>   -17.1325     0.0009   140.0001 </r>
       <r>   -17.0129    16.2500   142.1432 </r>
       <r>   -16.8933     5.5986   143.2445 </r>
       <r>   -16.7737     1.3431   143.5356 </r>
       <r>   -16.6541     1.4251   143.7704 </r>
       <r>   -16.5346    20.6989   146.3253 </r>
       <r>   -16.4150     1.4622   148.1749 </r>
       <r>   -16.2954     1.0570   148.3764 </r>
       <r>   -16.1758     0.9153   148.5595 </r>
       <r>   -16.0562     1.2429   148.7736 </r>
       <r>   -15.9366     2.7729   149.4066 </r>
       <r>   -15.8171     2.9374   149.9013 </r>
       <r>   -15.6975    13.8132   151.7768 </r>
       <r>   -15.5779     0.0000   152.0000 </r>
       <r>   -15.4583     0.0000   152.0000 </r>
       <r>   -15.3387     0.0000   152.0000 </r>
       <r>   -15.2191     0.0000   152.0000 </r>
       <r>   -15.0995     0.8807   152.1053 </r>
       <r>   -14.9800    14.9988   154.0936 </r>
       <r>   -14.8604    36.5623   158.7223 </r>
       <r>   -14.7408     3.0530   159.4901 </r>
       <r>   -14.6212    54.7554   166.2479 </r>
       <r>   -14.5016     0.0000   168.0000 </r>
       <r>   -14.3820    25.3964   171.0370 </r>
       <r>   -14.2625     9.2403   173.3050 </r>
       <r>   -14.1429    12.1253   176.0000 </r>
       <r>   -14.0233    26.3794   179.1546 </r>
       <r>   -13.9037    15.4340   181.8457 </r>
       <r>   -13.7841     6.2836   183.4764 </r>
       <r>   -13.6645    24.3761   187.3650 </r>
       <r>   -13.5450     5.4081   188.2967 </r>
       <r>   -13.4254    28.9088   192.1320 </r>
       <r>   -13.3058    26.2527   197.4144 </r>
       <r>   -13.1862    42.4133   203.9970 </r>
       <r>   -13.0666    19.6511   208.0000 </r>
       <r>   -12.9470    23.4978   210.8100 </r>
       <r>   -12.8274     0.2884   212.0345 </r>
       <r>   -12.7079    49.6224   223.0341 </r>
       <r>   -12.5883    50.1738   230.0000 </r>
       <r>   -12.4687    63.1444   237.5511 </r>
       <r>   -12.3491    62.2581   248.4451 </r>
       <r>   -12.2295    49.3678   254.8286 </r>
       <r>   -12.1099    66.7569   264.9581 </r>
       <r>   -11.9904    16.6463   267.7406 </r>
       <r>   -11.8708    33.4492   272.0000 </r>
       <r>   -11.7512    25.4248   275.0404 </r>
       <r>   -11.6316    14.2181   277.2003 </r>
       <r>   -11.5120    14.0703   281.3326 </r>
       <r>   -11.3924    18.2336   284.5554 </r>
       <r>   -11.2729    24.4223   288.3455 </r>
       <r>   -11.1533    13.5044   291.3149 </r>
       <r>   -11.0337     1.8547   291.6218 </r>
       <r>   -10.9141    23.1404   294.5422 </r>
       <r>   -10.7945     5.4355   296.0000 </r>
       <r>   -10.6749     0.0000   296.0000 </r>
       <r>   -10.5553     2.7094   296.3990 </r>
       <r>   -10.4358     5.3357   297.1631 </r>
       <r>   -10.3162    19.0061   301.2228 </r>
       <r>   -10.1966    27.2416   306.2327 </r>
       <r>   -10.0770    25.1647   310.3343 </r>
       <r>    -9.9574    25.0551   314.1712 </r>
       <r>    -9.8378    40.0328   322.0123 </r>
       <r>    -9.7183    34.5473   327.3563 </r>
       <r>    -9.5987    23.2054   332.0000 </r>
       <r>    -9.4791    19.6817   334.3536 </r>
       <r>    -9.3595     0.0000   336.0000 </r>
       <r>    -9.2399     2.6693   336.3192 </r>
       <r>    -9.1203    51.9761   343.9405 </r>
       <r>    -9.0008     5.3953   345.4202 </r>
       <r>    -8.8812    11.3225   347.0540 </r>
       <r>    -8.7616     1.4634   348.0000 </r>
       <r>    -8.6420     3.8429   348.4595 </r>
       <r>    -8.5224     6.7214   350.7788 </r>
       <r>    -8.4028    33.3698   355.2655 </r>
       <r>    -8.2832     0.0000   356.0000 </r>
       <r>    -8.1637     0.0000   356.0000 </r>
       <r>    -8.0441     0.0000   356.0000 </r>
       <r>    -7.9245     0.0000   356.0000 </r>
       <r>    -7.8049    16.6361   357.9894 </r>
       <r>    -7.6853     4.4496   360.5321 </r>
       <r>    -7.5657    10.4659   368.0016 </r>
       <r>    -7.4462    86.6115   382.3574 </r>
       <r>    -7.3266    52.5147   391.8799 </r>
       <r>    -7.2070    10.8997   393.3534 </r>
       <r>    -7.0874    40.1198   400.0227 </r>
       <r>    -6.9678    89.1383   415.9595 </r>
       <r>    -6.8482     4.8795   416.5835 </r>
       <r>    -6.7287    33.4492   428.0000 </r>
       <r>    -6.6091    67.3671   436.0560 </r>
       <r>    -6.4895    33.3816   443.9919 </r>
       <r>    -6.3699   107.0207   456.7980 </r>
       <r>    -6.2503    16.7246   464.0000 </r>
       <r>    -6.1307    33.4492   468.0000 </r>
       <r>    -6.0111     0.0000   468.0000 </r>
       <r>    -5.8916     0.0000   468.0000 </r>
       <r>    -5.7720     0.0000   468.0000 </r>
       <r>    -5.6524     0.0000   468.0000 </r>
       <r>    -5.5328     0.0000   468.0000 </r>
       <r>    -5.4132     0.0000   468.0000 </r>
       <r>    -5.2936     0.0000   468.0000 </r>
       <r>    -5.1741     0.0000   468.0000 </r>
       <r>    -5.0545     0.0000   468.0000 </r>
       <r>    -4.9349     0.0000   468.0000 </r>
       <r>    -4.8153     0.0000   468.0000 </r>
       <r>    -4.6957     0.0000   468.0000 </r>
       <r>    -4.5761     0.0000   468.0000 </r>
       <r>    -4.4566     0.0000   468.0000 </r>
       <r>    -4.3370     0.0000   468.0000 </r>
       <r>    -4.2174     0.0000   468.0000 </r>
       <r>    -4.0978     0.0000   468.0000 </r>
       <r>    -3.9782     0.0000   468.0000 </r>
       <r>    -3.8586     0.0000   468.0000 </r>
       <r>    -3.7390    22.9818   472.1983 </r>
       <r>    -3.6195     9.1139   474.0399 </r>
       <r>    -3.4999     8.4718   475.9631 </r>
       <r>    -3.3803     7.8723   476.9414 </r>
       <r>    -3.2607     8.2548   478.9371 </r>
       <r>    -3.1411    54.1371   487.5989 </r>
       <r>    -3.0215     0.0000   488.0000 </r>
       <r>    -2.9020    58.8310   496.0103 </r>
       <r>    -2.7824    16.7246   500.0000 </r>
       <r>    -2.6628    19.2257   502.2991 </r>
       <r>    -2.5432     4.4140   503.4778 </r>
       <r>    -2.4236    26.1229   506.7489 </r>
       <r>    -2.3040     0.0000   508.0000 </r>
       <r>    -2.1845     0.0000   508.0000 </r>
       <r>    -2.0649     1.8591   508.3473 </r>
       <r>    -1.9453     1.2624   508.6010 </r>
       <r>    -1.8257    22.6693   511.5609 </r>
       <r>    -1.7061     4.1969   513.4769 </r>
       <r>    -1.5865    24.3054   516.6065 </r>
       <r>    -1.4669    41.3566   523.6456 </r>
       <r>    -1.3474     0.8362   524.0000 </r>
       <r>    -1.2278     0.0000   524.0000 </r>
       <r>    -1.1082     0.0702   524.0084 </r>
       <r>    -0.9886     7.4614   525.0923 </r>
       <r>    -0.8690     3.8153   526.3812 </r>
       <r>    -0.7494     4.1058   527.0660 </r>
       <r>    -0.6299     7.0961   528.0236 </r>
       <r>    -0.5103     8.7814   530.0001 </r>
       <r>    -0.3907    14.1742   531.9950 </r>
       <r>    -0.2711     0.0000   532.0000 </r>
       <r>    -0.1515     7.6333   532.9128 </r>
       <r>    -0.0319    12.7525   536.0000 </r>
       <r>     0.0876     0.0000   536.0000 </r>
       <r>     0.2072     0.0000   536.0000 </r>
       <r>     0.3268     1.9110   536.2285 </r>
       <r>     0.4464    21.0683   539.8944 </r>
       <r>     0.5660    32.8721   544.8810 </r>
       <r>     0.6856    33.1904   551.1190 </r>
       <r>     0.8052    16.3179   557.0264 </r>
       <r>     0.9247    26.3786   561.5295 </r>
       <r>     1.0443    22.5464   565.9212 </r>
       <r>     1.1639    26.7731   570.9016 </r>
       <r>     1.2835    30.5368   575.9267 </r>
       <r>     1.4031    39.1485   582.9565 </r>
       <r>     1.5227    32.8315   589.6511 </r>
       <r>     1.6422    25.5594   594.9815 </r>
       <r>     1.7618    36.0089   600.7811 </r>
       <r>     1.8814    34.5129   607.3022 </r>
       <r>     2.0010     0.2091   608.0000 </r>
       <r>     2.1206     0.0000   608.0000 </r>
       <r>     2.2402     0.0000   608.0000 </r>
       <r>     2.3597     0.0000   608.0000 </r>
       <r>     2.4793     0.0000   608.0000 </r>
       <r>     2.5989     0.0000   608.0000 </r>
       <r>     2.7185     0.0000   608.0000 </r>
       <r>     2.8381     0.0000   608.0000 </r>
       <r>     2.9577     0.0000   608.0000 </r>
       <r>     3.0773     0.0000   608.0000 </r>
       <r>     3.1968     0.0000   608.0000 </r>
       <r>     3.3164     0.0000   608.0000 </r>
       <r>     3.4360     0.0000   608.0000 </r>
       <r>     3.5556     0.0000   608.0000 </r>
      </set>
     </set>
    </array>
   </total>
  </dos>
 </calculation>
 <structure name="finalpos" >
  <crystal>
   <varray name="basis" >
    <v>      14.56515393       0.02369600       0.00000000 </v>
    <v>       0.04078005      25.16161912       0.00000000 </v>
    <v>       0.00000000       0.00000000      20.00000000 </v>
   </varray>
   <i name="volume">   7329.63778619 </i>
   <varray name="rec_basis" >
    <v>       0.06865720      -0.00011127       0.00000000 </v>
    <v>      -0.00006466       0.03974318       0.00000000 </v>
    <v>       0.00000000       0.00000000       0.05000000 </v>
   </varray>
  </crystal>
  <varray name="positions" >
   <v>       0.08227151       0.36130532       0.51402029 </v>
   <v>       0.00451791       0.28005949       0.49086152 </v>
   <v>       0.92094439       0.36125949       0.49438600 </v>
   <v>       0.42098799       0.14091242       0.49359701 </v>
   <v>       0.50404450       0.22206499       0.49436360 </v>
   <v>       0.58409862       0.13979415       0.48983833 </v>
   <v>       0.59241310       0.30851184       0.45485932 </v>
   <v>       0.38660043       0.05762372       0.58644808 </v>
   <v>       0.38949930       0.27702424       0.59698788 </v>
   <v>       0.76131498       0.14053793       0.52311933 </v>
   <v>       0.61025077       0.05000993       0.39529196 </v>
   <v>       0.27765584       0.17190634       0.40044973 </v>
   <v>       0.57189834       0.86001022       0.48404572 </v>
   <v>       0.49128787       0.77930570       0.50253945 </v>
   <v>       0.41317663       0.86204683       0.51391581 </v>
   <v>       0.91205416       0.64095267       0.50858602 </v>
   <v>       0.99173081       0.72333588       0.50967959 </v>
   <v>       0.07483131       0.64184860       0.51182011 </v>
   <v>       0.09982393       0.78839043       0.59858749 </v>
   <v>       0.83973781       0.55233142       0.45460890 </v>
   <v>       0.75476109       0.66507024       0.59205690 </v>
   <v>       0.22362235       0.66456681       0.42319814 </v>
   <v>       0.15012051       0.55424331       0.56800559 </v>
   <v>       0.88935423       0.78539469       0.41738647 </v>
   <v>       0.75537857       0.34777110       0.46638779 </v>
   <v>       0.86106377       0.45079496       0.46974094 </v>
   <v>       0.23393999       0.32796054       0.57831516 </v>
   <v>       0.90162015       0.20238012       0.50920738 </v>
   <v>       0.13659791       0.45237461       0.54903263 </v>
   <v>       0.12494926       0.22402740       0.42546794 </v>
   <v>       0.25702619       0.83620922       0.57766617 </v>
   <v>       0.38556554       0.95458674       0.56809496 </v>
   <v>       0.60458483       0.71658047       0.56052390 </v>
   <v>       0.37499038       0.71715688       0.44695367 </v>
   <v>       0.60311702       0.94808907       0.42108213 </v>
   <v>       0.72960569       0.83262654       0.42976781 </v>
   <v>       0.56481568       0.34180388       0.49545021 </v>
   <v>       0.56308821       0.30090404       0.39778024 </v>
   <v>       0.42786530       0.09012958       0.62160492 </v>
   <v>       0.30500871       0.04498437       0.59122881 </v>
   <v>       0.39839874       0.32407439       0.61308799 </v>
   <v>       0.42873821       0.23849836       0.62289708 </v>
   <v>       0.79408667       0.10935435       0.48193050 </v>
   <v>       0.73891271       0.13057355       0.58126211 </v>
   <v>       0.57472769       0.08782852       0.36527251 </v>
   <v>       0.68519497       0.02925722       0.38277288 </v>
   <v>       0.21423009       0.14022530       0.39161085 </v>
   <v>       0.34901916       0.17508037       0.36721572 </v>
   <v>       0.06666286       0.75413200       0.63562836 </v>
   <v>       0.08207363       0.83640951       0.59906852 </v>
   <v>       0.76569297       0.54679826       0.48362716 </v>
   <v>       0.85270069       0.57359073       0.39980078 </v>
   <v>       0.82209159       0.66700457       0.62969051 </v>
   <v>       0.69055379       0.63331640       0.59536565 </v>
   <v>       0.15499042       0.66630759       0.38681098 </v>
   <v>       0.28683373       0.63190114       0.42017993 </v>
   <v>       0.22547732       0.54892675       0.54067048 </v>
   <v>       0.13418222       0.57642168       0.62185981 </v>
   <v>       0.92321997       0.75117330       0.38044304 </v>
   <v>       0.90872563       0.83310819       0.41871566 </v>
   <v>       0.24121954       0.29477695       0.54375064 </v>
   <v>       0.18053010       0.23673082       0.45813984 </v>
   <v>       0.66362779       0.73170788       0.53314888 </v>
   <v>       0.73341029       0.79654483       0.45971684 </v>
   <v>       0.00090458       0.38603412       0.50601314 </v>
   <v>       0.08044533       0.30871018       0.50260435 </v>
   <v>       0.92580938       0.30809125       0.49061841 </v>
   <v>       0.50226177       0.11599358       0.49144080 </v>
   <v>       0.42645841       0.19398281       0.49522869 </v>
   <v>       0.58130486       0.19304974       0.49112429 </v>
   <v>       0.67427513       0.27680838       0.47482966 </v>
   <v>       0.75573625       0.30513446       0.47561574 </v>
   <v>       0.44158190       0.02909501       0.53515723 </v>
   <v>       0.92089051       0.47240851       0.48754158 </v>
   <v>       0.32206239       0.26525742       0.54329155 </v>
   <v>       0.83851413       0.27840275       0.48761320 </v>
   <v>       0.83764677       0.22362699       0.49975468 </v>
   <v>       0.75439300       0.19708696       0.50208891 </v>
   <v>       0.66938784       0.22200281       0.48917626 </v>
   <v>       0.99900205       0.44477053       0.50918004 </v>
   <v>       0.07512185       0.47320617       0.53226146 </v>
   <v>       0.55510866       0.02554481       0.44973305 </v>
   <v>       0.50016316       0.05695397       0.49190360 </v>
   <v>       0.16905545       0.27970153       0.50179233 </v>
   <v>       0.26527519       0.21145419       0.45482326 </v>
   <v>       0.33819976       0.22379139       0.49784106 </v>
   <v>       0.49296568       0.88560571       0.49775677 </v>
   <v>       0.56857178       0.80711884       0.49266939 </v>
   <v>       0.41496099       0.80873943       0.51018343 </v>
   <v>       0.99393935       0.61663639       0.51074802 </v>
   <v>       0.91514735       0.69407335       0.50790454 </v>
   <v>       0.06955645       0.69489482       0.51136507 </v>
   <v>       0.17106522       0.77032172       0.55052043 </v>
   <v>       0.25192132       0.79949821       0.54909212 </v>
   <v>       0.92127580       0.52750268       0.48686368 </v>
   <v>       0.43492459       0.97405806       0.53543025 </v>
   <v>       0.74837952       0.70693357       0.53983609 </v>
   <v>       0.32668119       0.77992209       0.51267883 </v>
   <v>       0.31758334       0.73298438       0.47570142 </v>
   <v>       0.23300469       0.70786233       0.47328156 </v>
   <v>       0.15762752       0.72442702       0.51187019 </v>
   <v>       0.49462084       0.94434393       0.49529277 </v>
   <v>       0.55628277       0.97041918       0.45296273 </v>
   <v>       0.07081891       0.52826663       0.53479108 </v>
   <v>       0.99522539       0.55786523       0.51107604 </v>
   <v>       0.65644627       0.77763111       0.49394288 </v>
   <v>       0.81484174       0.76778194       0.46282740 </v>
   <v>       0.82629154       0.72290796       0.50375471 </v>
  </varray>
 </structure>
</modeling>
