<?xml version="1.0" encoding="ISO-8859-1"?>
<modeling>
 <generator>
  <i name="program" type="string">vasp </i>
  <i name="version" type="string">5.4.4.18Apr17-6-g9f103f2a35  </i>
  <i name="subversion" type="string">(build Jun 07 2020 16:50:00) complex            parallel </i>
  <i name="platform" type="string">LinuxIFC </i>
  <i name="date" type="string">2023 03 03 </i>
  <i name="time" type="string">04:09:56 </i>
 </generator>
 <incar>
  <i type="string" name="SYSTEM">Simulation for cell shape cell volume r</i>
  <i type="int" name="ISTART">     1</i>
  <i type="string" name="PREC">high</i>
  <i type="string" name="ALGO">48</i>
  <i type="int" name="ICHARG">    11</i>
  <i type="int" name="NELM">   200</i>
  <i type="int" name="IBRION">    -1</i>
  <i name="EDIFF">      0.00001000</i>
  <i name="EDIFFG">     -0.01000000</i>
  <i type="int" name="NSW">     0</i>
  <i type="int" name="ISIF">     2</i>
  <i name="ENCUT">    500.00000000</i>
  <i name="POTIM">      0.30000000</i>
  <i type="string" name="LREAL">A</i>
  <i type="int" name="ISMEAR">     0</i>
  <i name="SIGMA">      0.01000000</i>
  <i type="int" name="NWRITE">     0</i>
  <i type="logical" name="LWAVE"> F  </i>
  <i type="logical" name="LCHARG"> F  </i>
  <v type="int" name="KPOINT_BSE">    -1     0     0     0</v>
  <i type="int" name="NELM">   200</i>
  <i type="string" name="GGA">PE</i>
 </incar>
 <structure name="primitive_cell" >
  <crystal>
   <varray name="basis" >
    <v>      22.40976052       0.01165315       0.00000000 </v>
    <v>     -11.19474440      19.41147599       0.00000000 </v>
    <v>      -0.00000000       0.00000000      20.00000000 </v>
   </varray>
   <i name="volume">   8702.73964807 </i>
   <varray name="rec_basis" >
    <v>       0.04461003       0.02572694       0.00000000 </v>
    <v>      -0.00002678       0.05150047      -0.00000000 </v>
    <v>       0.00000000       0.00000000       0.05000000 </v>
   </varray>
  </crystal>
  <varray name="positions" >
   <v>      -0.47039487       0.34130491       0.41135974 </v>
   <v>      -0.45544564       0.38423457       0.44581498 </v>
   <v>      -0.49029606       0.42112756       0.44449153 </v>
   <v>      -0.39982400       0.40287338       0.48958565 </v>
   <v>       0.46727620       0.40650110       0.40943350 </v>
   <v>      -0.45274825       0.26434600       0.48952568 </v>
   <v>      -0.36145085       0.36495793       0.48975044 </v>
   <v>      -0.39653772       0.29275650       0.48978518 </v>
   <v>      -0.38117817       0.45872401      -0.46698319 </v>
   <v>      -0.47129892       0.47701029       0.48784342 </v>
   <v>      -0.41687870       0.49479823      -0.46727758 </v>
   <v>      -0.28921507       0.40084984       0.48971724 </v>
   <v>      -0.36059893       0.25639018       0.48989980 </v>
   <v>      -0.33867282       0.47338931      -0.43205004 </v>
   <v>      -0.26146963       0.45705847       0.48940840 </v>
   <v>      -0.41717863      -0.43393065       0.37247412 </v>
   <v>       0.49149440      -0.48383824       0.48747878 </v>
   <v>      -0.39855873       0.18016337       0.48976030 </v>
   <v>      -0.25210412       0.36569529       0.48981006 </v>
   <v>      -0.47761568      -0.44694659       0.36816918 </v>
   <v>      -0.46936199       0.17099709      -0.43222185 </v>
   <v>      -0.28839366       0.29344700       0.48990357 </v>
   <v>      -0.40164454      -0.46180895      -0.43335865 </v>
   <v>      -0.45466406       0.14309576      -0.46707374 </v>
   <v>       0.48624504      -0.44953546       0.43093756 </v>
   <v>       0.48967087      -0.45679785       0.31535157 </v>
   <v>       0.45869061       0.49121130      -0.41039163 </v>
   <v>       0.45690219      -0.48153016      -0.45486463 </v>
   <v>      -0.37983642       0.14308070       0.44616240 </v>
   <v>      -0.16695967       0.47452718       0.41131618 </v>
   <v>      -0.33670412       0.17092678       0.41191940 </v>
   <v>      -0.25992280       0.26565747       0.48975121 </v>
   <v>      -0.17587581       0.40399391       0.48958856 </v>
   <v>      -0.49094734       0.07138335      -0.46750623 </v>
   <v>      -0.13896607       0.45952533       0.44572650 </v>
   <v>       0.44933200      -0.41462556       0.43090707 </v>
   <v>      -0.41690536       0.07141280       0.44471940 </v>
   <v>       0.46546196       0.04337010      -0.43379279 </v>
   <v>       0.41994441      -0.44666665      -0.45377065 </v>
   <v>       0.43993401      -0.00007416       0.37069972 </v>
   <v>      -0.47308945       0.03465612       0.48775148 </v>
   <v>       0.44687638      -0.38944830       0.38520836 </v>
   <v>       0.41612922      -0.41224300       0.48918482 </v>
   <v>      -0.13863783       0.38534245      -0.46699129 </v>
   <v>      -0.16639768       0.34296827      -0.43192555 </v>
   <v>      -0.40217726       0.04356513       0.40979498 </v>
   <v>       0.39384904      -0.44572439      -0.40805783 </v>
   <v>      -0.06729125       0.49424169       0.44426735 </v>
   <v>       0.45252586      -0.04784722       0.36726253 </v>
   <v>       0.48767432      -0.04162516       0.48733518 </v>
   <v>      -0.03960477      -0.46337997       0.40914776 </v>
   <v>      -0.06692497       0.42090385      -0.46742495 </v>
   <v>       0.37786890      -0.37385304       0.49012978 </v>
   <v>       0.45428871      -0.08121408       0.43053300 </v>
   <v>       0.27756553      -0.46561357       0.49002056 </v>
   <v>       0.46266380      -0.07120453       0.31489390 </v>
   <v>      -0.03035904       0.47521888       0.48757784 </v>
   <v>      -0.48903879      -0.04935488      -0.40992475 </v>
   <v>       0.30573854      -0.40940531       0.49040155 </v>
   <v>       0.48442374      -0.07844534      -0.45461430 </v>
   <v>       0.46986413      -0.27369420       0.48957576 </v>
   <v>      -0.03875896       0.40567113      -0.43347205 </v>
   <v>       0.41366322      -0.30167536       0.49008792 </v>
   <v>       0.00532327       0.42244939       0.37112880 </v>
   <v>       0.41951719      -0.15299216       0.43065677 </v>
   <v>       0.04593394      -0.48756899       0.48728971 </v>
   <v>       0.39504295      -0.18067055       0.38478576 </v>
   <v>       0.05279614       0.48286349       0.36756209 </v>
   <v>       0.44963084      -0.15020359      -0.45337649 </v>
   <v>       0.26936865      -0.37354840       0.49052639 </v>
   <v>       0.05331513      -0.45586690      -0.41024548 </v>
   <v>       0.41627985      -0.18847968       0.48928139 </v>
   <v>       0.18531636      -0.44162717       0.38530663 </v>
   <v>       0.07628878      -0.48395573       0.31507859 </v>
   <v>       0.37804062      -0.26509579       0.49023459 </v>
   <v>       0.08574889      -0.48161820       0.43073842 </v>
   <v>       0.08255963      -0.45356463      -0.45473981 </v>
   <v>       0.44802358      -0.17713781      -0.40736464 </v>
   <v>       0.19278440      -0.41189925       0.48956186 </v>
   <v>       0.30587085      -0.30140646       0.49053023 </v>
   <v>       0.15750451      -0.44455794       0.43101668 </v>
   <v>       0.27784276      -0.27317661       0.49023371 </v>
   <v>       0.15430910      -0.41648000      -0.45334328 </v>
   <v>       0.18107207      -0.39085565      -0.40738261 </v>
  </varray>
 </structure>
 <varray name="primitive_index" >
  <v type="int" >        1 </v>
  <v type="int" >       39 </v>
  <v type="int" >       40 </v>
  <v type="int" >       38 </v>
  <v type="int" >        2 </v>
  <v type="int" >        5 </v>
  <v type="int" >       43 </v>
  <v type="int" >       45 </v>
  <v type="int" >       42 </v>
  <v type="int" >       37 </v>
  <v type="int" >       41 </v>
  <v type="int" >       44 </v>
  <v type="int" >       47 </v>
  <v type="int" >        4 </v>
  <v type="int" >        6 </v>
  <v type="int" >       33 </v>
  <v type="int" >       72 </v>
  <v type="int" >       60 </v>
  <v type="int" >       46 </v>
  <v type="int" >       36 </v>
  <v type="int" >        8 </v>
  <v type="int" >       48 </v>
  <v type="int" >        3 </v>
  <v type="int" >       78 </v>
  <v type="int" >       73 </v>
  <v type="int" >       32 </v>
  <v type="int" >       27 </v>
  <v type="int" >       84 </v>
  <v type="int" >       61 </v>
  <v type="int" >        7 </v>
  <v type="int" >       14 </v>
  <v type="int" >        9 </v>
  <v type="int" >       68 </v>
  <v type="int" >       77 </v>
  <v type="int" >       69 </v>
  <v type="int" >       74 </v>
  <v type="int" >       62 </v>
  <v type="int" >       19 </v>
  <v type="int" >       83 </v>
  <v type="int" >       29 </v>
  <v type="int" >       59 </v>
  <v type="int" >       18 </v>
  <v type="int" >       71 </v>
  <v type="int" >       82 </v>
  <v type="int" >       23 </v>
  <v type="int" >       15 </v>
  <v type="int" >       26 </v>
  <v type="int" >       70 </v>
  <v type="int" >       34 </v>
  <v type="int" >       56 </v>
  <v type="int" >       17 </v>
  <v type="int" >       81 </v>
  <v type="int" >       49 </v>
  <v type="int" >       57 </v>
  <v type="int" >       12 </v>
  <v type="int" >       28 </v>
  <v type="int" >       67 </v>
  <v type="int" >       21 </v>
  <v type="int" >       50 </v>
  <v type="int" >       76 </v>
  <v type="int" >       11 </v>
  <v type="int" >       22 </v>
  <v type="int" >       54 </v>
  <v type="int" >       31 </v>
  <v type="int" >       58 </v>
  <v type="int" >       64 </v>
  <v type="int" >       13 </v>
  <v type="int" >       35 </v>
  <v type="int" >       75 </v>
  <v type="int" >       51 </v>
  <v type="int" >       25 </v>
  <v type="int" >       55 </v>
  <v type="int" >       16 </v>
  <v type="int" >       30 </v>
  <v type="int" >       53 </v>
  <v type="int" >       65 </v>
  <v type="int" >       80 </v>
  <v type="int" >       20 </v>
  <v type="int" >       63 </v>
  <v type="int" >       52 </v>
  <v type="int" >       66 </v>
  <v type="int" >       10 </v>
  <v type="int" >       79 </v>
  <v type="int" >       24 </v>
 </varray>
 <kpoints>
  <generation param="listgenerated">
   <i name="divisions" type="int">      20 </i>
   <v>       0.00000000       0.00000000       0.00000000 </v>
   <v>       0.50000000       0.00000000       0.00000000 </v>
   <v>       0.33333333       0.33333333       0.00000000 </v>
   <v>       0.00000000       0.00000000       0.00000000 </v>
  </generation>
  <varray name="kpointlist" >
   <v>       0.00000000       0.00000000       0.00000000 </v>
   <v>       0.02631579       0.00000000       0.00000000 </v>
   <v>       0.05263158       0.00000000       0.00000000 </v>
   <v>       0.07894737       0.00000000       0.00000000 </v>
   <v>       0.10526316       0.00000000       0.00000000 </v>
   <v>       0.13157895       0.00000000       0.00000000 </v>
   <v>       0.15789474       0.00000000       0.00000000 </v>
   <v>       0.18421053       0.00000000       0.00000000 </v>
   <v>       0.21052632       0.00000000       0.00000000 </v>
   <v>       0.23684211       0.00000000       0.00000000 </v>
   <v>       0.26315789       0.00000000       0.00000000 </v>
   <v>       0.28947368       0.00000000       0.00000000 </v>
   <v>       0.31578947       0.00000000       0.00000000 </v>
   <v>       0.34210526       0.00000000       0.00000000 </v>
   <v>       0.36842105       0.00000000       0.00000000 </v>
   <v>       0.39473684       0.00000000       0.00000000 </v>
   <v>       0.42105263       0.00000000       0.00000000 </v>
   <v>       0.44736842       0.00000000       0.00000000 </v>
   <v>       0.47368421       0.00000000       0.00000000 </v>
   <v>       0.50000000       0.00000000       0.00000000 </v>
   <v>       0.50000000       0.00000000       0.00000000 </v>
   <v>       0.49122807       0.01754386       0.00000000 </v>
   <v>       0.48245614       0.03508772       0.00000000 </v>
   <v>       0.47368421       0.05263158       0.00000000 </v>
   <v>       0.46491228       0.07017544       0.00000000 </v>
   <v>       0.45614035       0.08771930       0.00000000 </v>
   <v>       0.44736842       0.10526316       0.00000000 </v>
   <v>       0.43859649       0.12280702       0.00000000 </v>
   <v>       0.42982456       0.14035088       0.00000000 </v>
   <v>       0.42105263       0.15789474       0.00000000 </v>
   <v>       0.41228070       0.17543860       0.00000000 </v>
   <v>       0.40350877       0.19298246       0.00000000 </v>
   <v>       0.39473684       0.21052632       0.00000000 </v>
   <v>       0.38596491       0.22807018       0.00000000 </v>
   <v>       0.37719298       0.24561404       0.00000000 </v>
   <v>       0.36842105       0.26315789       0.00000000 </v>
   <v>       0.35964912       0.28070175       0.00000000 </v>
   <v>       0.35087719       0.29824561       0.00000000 </v>
   <v>       0.34210526       0.31578947       0.00000000 </v>
   <v>       0.33333333       0.33333333       0.00000000 </v>
   <v>       0.33333333       0.33333333       0.00000000 </v>
   <v>       0.31578947       0.31578947       0.00000000 </v>
   <v>       0.29824561       0.29824561       0.00000000 </v>
   <v>       0.28070175       0.28070175       0.00000000 </v>
   <v>       0.26315789       0.26315789       0.00000000 </v>
   <v>       0.24561404       0.24561404       0.00000000 </v>
   <v>       0.22807018       0.22807018       0.00000000 </v>
   <v>       0.21052632       0.21052632       0.00000000 </v>
   <v>       0.19298246       0.19298246       0.00000000 </v>
   <v>       0.17543860       0.17543860       0.00000000 </v>
   <v>       0.15789474       0.15789474       0.00000000 </v>
   <v>       0.14035088       0.14035088       0.00000000 </v>
   <v>       0.12280702       0.12280702       0.00000000 </v>
   <v>       0.10526316       0.10526316       0.00000000 </v>
   <v>       0.08771930       0.08771930       0.00000000 </v>
   <v>       0.07017544       0.07017544       0.00000000 </v>
   <v>       0.05263158       0.05263158       0.00000000 </v>
   <v>       0.03508772       0.03508772       0.00000000 </v>
   <v>       0.01754386       0.01754386       0.00000000 </v>
   <v>       0.00000000       0.00000000       0.00000000 </v>
  </varray>
  <varray name="weights" >
   <v>       0.01666667 </v>
   <v>       0.01666667 </v>
   <v>       0.01666667 </v>
   <v>       0.01666667 </v>
   <v>       0.01666667 </v>
   <v>       0.01666667 </v>
   <v>       0.01666667 </v>
   <v>       0.01666667 </v>
   <v>       0.01666667 </v>
   <v>       0.01666667 </v>
   <v>       0.01666667 </v>
   <v>       0.01666667 </v>
   <v>       0.01666667 </v>
   <v>       0.01666667 </v>
   <v>       0.01666667 </v>
   <v>       0.01666667 </v>
   <v>       0.01666667 </v>
   <v>       0.01666667 </v>
   <v>       0.01666667 </v>
   <v>       0.01666667 </v>
   <v>       0.01666667 </v>
   <v>       0.01666667 </v>
   <v>       0.01666667 </v>
   <v>       0.01666667 </v>
   <v>       0.01666667 </v>
   <v>       0.01666667 </v>
   <v>       0.01666667 </v>
   <v>       0.01666667 </v>
   <v>       0.01666667 </v>
   <v>       0.01666667 </v>
   <v>       0.01666667 </v>
   <v>       0.01666667 </v>
   <v>       0.01666667 </v>
   <v>       0.01666667 </v>
   <v>       0.01666667 </v>
   <v>       0.01666667 </v>
   <v>       0.01666667 </v>
   <v>       0.01666667 </v>
   <v>       0.01666667 </v>
   <v>       0.01666667 </v>
   <v>       0.01666667 </v>
   <v>       0.01666667 </v>
   <v>       0.01666667 </v>
   <v>       0.01666667 </v>
   <v>       0.01666667 </v>
   <v>       0.01666667 </v>
   <v>       0.01666667 </v>
   <v>       0.01666667 </v>
   <v>       0.01666667 </v>
   <v>       0.01666667 </v>
   <v>       0.01666667 </v>
   <v>       0.01666667 </v>
   <v>       0.01666667 </v>
   <v>       0.01666667 </v>
   <v>       0.01666667 </v>
   <v>       0.01666667 </v>
   <v>       0.01666667 </v>
   <v>       0.01666667 </v>
   <v>       0.01666667 </v>
   <v>       0.01666667 </v>
  </varray>
 </kpoints>
 <parameters>
  <separator name="general" >
   <i type="string" name="SYSTEM">Simulation for cell shape cell volume r</i>
   <i type="logical" name="LCOMPAT"> F  </i>
  </separator>
  <separator name="electronic" >
   <i type="string" name="PREC">high</i>
   <i name="ENMAX">    500.00000000</i>
   <i name="ENAUG">    644.87300000</i>
   <i name="EDIFF">      0.00001000</i>
   <i type="int" name="IALGO">    38</i>
   <i type="int" name="IWAVPR">    10</i>
   <i type="int" name="NBANDS">   192</i>
   <i name="NELECT">    270.00000000</i>
   <i type="int" name="TURBO">     0</i>
   <i type="int" name="IRESTART">     0</i>
   <i type="int" name="NREBOOT">     0</i>
   <i type="int" name="NMIN">     0</i>
   <i name="EREF">      0.00000000</i>
   <separator name="electronic smearing" >
    <i type="int" name="ISMEAR">     0</i>
    <i name="SIGMA">      0.01000000</i>
    <i name="KSPACING">      0.50000000</i>
    <i type="logical" name="KGAMMA"> T  </i>
   </separator>
   <separator name="electronic projectors" >
    <i type="logical" name="LREAL"> T  </i>
    <v name="ROPT">     -0.00040000     -0.00040000     -0.00040000     -0.00040000</v>
    <i type="int" name="LMAXPAW">  -100</i>
    <i type="int" name="LMAXMIX">     2</i>
    <i type="logical" name="NLSPLINE"> F  </i>
   </separator>
   <separator name="electronic startup" >
    <i type="int" name="ISTART">     1</i>
    <i type="int" name="ICHARG">    11</i>
    <i type="int" name="INIWAV">     1</i>
   </separator>
   <separator name="electronic spin" >
    <i type="int" name="ISPIN">     1</i>
    <i type="logical" name="LNONCOLLINEAR"> F  </i>
    <v name="MAGMOM">      1.00000000      1.00000000      1.00000000      1.00000000      1.00000000      1.00000000      1.00000000      1.00000000      1.00000000      1.00000000      1.00000000      1.00000000      1.00000000      1.00000000      1.00000000      1.00000000      1.00000000      1.00000000      1.00000000      1.00000000
      1.00000000      1.00000000      1.00000000      1.00000000      1.00000000      1.00000000      1.00000000      1.00000000      1.00000000      1.00000000      1.00000000      1.00000000      1.00000000      1.00000000      1.00000000      1.00000000      1.00000000      1.00000000      1.00000000      1.00000000
      1.00000000      1.00000000      1.00000000      1.00000000      1.00000000      1.00000000      1.00000000      1.00000000      1.00000000      1.00000000      1.00000000      1.00000000      1.00000000      1.00000000      1.00000000      1.00000000      1.00000000      1.00000000      1.00000000      1.00000000
      1.00000000      1.00000000      1.00000000      1.00000000      1.00000000      1.00000000      1.00000000      1.00000000      1.00000000      1.00000000      1.00000000      1.00000000      1.00000000      1.00000000      1.00000000      1.00000000      1.00000000      1.00000000      1.00000000      1.00000000
      1.00000000      1.00000000      1.00000000      1.00000000</v>
    <i name="NUPDOWN">     -1.00000000</i>
    <i type="logical" name="LSORBIT"> F  </i>
    <v name="SAXIS">      0.00000000      0.00000000      1.00000000</v>
    <i type="logical" name="LSPIRAL"> F  </i>
    <v name="QSPIRAL">      0.00000000      0.00000000      0.00000000</v>
    <i type="logical" name="LZEROZ"> F  </i>
   </separator>
   <separator name="electronic exchange-correlation" >
    <i type="logical" name="LASPH"> F  </i>
    <i type="logical" name="LMETAGGA"> F  </i>
   </separator>
   <separator name="electronic convergence" >
    <i type="int" name="NELM">   200</i>
    <i type="int" name="NELMDL">     0</i>
    <i type="int" name="NELMIN">     2</i>
    <i name="ENINI">    500.00000000</i>
    <separator name="electronic convergence detail" >
     <i type="logical" name="LDIAG"> T  </i>
     <i type="logical" name="LSUBROT"> F  </i>
     <i name="WEIMIN">      0.00000000</i>
     <i name="EBREAK">      0.00000001</i>
     <i name="DEPER">      0.30000000</i>
     <i type="int" name="NRMM">     4</i>
     <i name="TIME">      0.40000000</i>
    </separator>
   </separator>
   <separator name="electronic mixer" >
    <i name="AMIX">      0.40000000</i>
    <i name="BMIX">      1.00000000</i>
    <i name="AMIN">      0.10000000</i>
    <i name="AMIX_MAG">      1.60000000</i>
    <i name="BMIX_MAG">      1.00000000</i>
    <separator name="electronic mixer details" >
     <i type="int" name="IMIX">     4</i>
     <i type="logical" name="MIXFIRST"> F  </i>
     <i type="int" name="MAXMIX">   -45</i>
     <i name="WC">    100.00000000</i>
     <i type="int" name="INIMIX">     1</i>
     <i type="int" name="MIXPRE">     1</i>
     <i type="int" name="MREMOVE">     5</i>
    </separator>
   </separator>
   <separator name="electronic dipolcorrection" >
    <i type="logical" name="LDIPOL"> F  </i>
    <i type="logical" name="LMONO"> F  </i>
    <i type="int" name="IDIPOL">     0</i>
    <i name="EPSILON">      1.00000000</i>
    <v name="DIPOL">   -100.00000000   -100.00000000   -100.00000000</v>
    <i name="EFIELD">      0.00000000</i>
   </separator>
  </separator>
  <separator name="grids" >
   <i type="int" name="NGX">   168</i>
   <i type="int" name="NGY">   168</i>
   <i type="int" name="NGZ">   150</i>
   <i type="int" name="NGXF">   250</i>
   <i type="int" name="NGYF">   250</i>
   <i type="int" name="NGZF">   224</i>
   <i type="logical" name="ADDGRID"> F  </i>
  </separator>
  <separator name="ionic" >
   <i type="int" name="NSW">     0</i>
   <i type="int" name="IBRION">    -1</i>
   <i type="int" name="MDALGO">     0</i>
   <i type="int" name="ISIF">     2</i>
   <i name="PSTRESS">      0.00000000</i>
   <i name="EDIFFG">     -0.01000000</i>
   <i type="int" name="NFREE">     0</i>
   <i name="POTIM">      0.30000000</i>
   <i name="SMASS">     -3.00000000</i>
   <i name="SCALEE">      1.00000000</i>
  </separator>
  <separator name="ionic md" >
   <i name="TEBEG">      0.00010000</i>
   <i name="TEEND">      0.00010000</i>
   <i type="int" name="NBLOCK">     1</i>
   <i type="int" name="KBLOCK">     1</i>
   <i type="int" name="NPACO">   256</i>
   <i name="APACO">     16.00000000</i>
  </separator>
  <separator name="symmetry" >
   <i type="int" name="ISYM">     2</i>
   <i name="SYMPREC">      0.00001000</i>
  </separator>
  <separator name="dos" >
   <i type="int" name="LORBIT">     0</i>
   <v name="RWIGS">     -1.00000000     -1.00000000     -1.00000000     -1.00000000</v>
   <i type="int" name="NEDOS">   301</i>
   <i name="EMIN">     10.00000000</i>
   <i name="EMAX">    -10.00000000</i>
   <i name="EFERMI">      0.00000000</i>
  </separator>
  <separator name="writing" >
   <i type="int" name="NWRITE">     0</i>
   <i type="logical" name="LWAVE"> F  </i>
   <i type="logical" name="LDOWNSAMPLE"> F  </i>
   <i type="logical" name="LCHARG"> F  </i>
   <i type="logical" name="LPARD"> F  </i>
   <i type="logical" name="LVTOT"> F  </i>
   <i type="logical" name="LVHAR"> F  </i>
   <i type="logical" name="LELF"> F  </i>
   <i type="logical" name="LOPTICS"> F  </i>
   <v name="STM">      0.00000000      0.00000000      0.00000000      0.00000000      0.00000000      0.00000000      0.00000000</v>
  </separator>
  <separator name="performance" >
   <i type="int" name="NPAR">    16</i>
   <i type="int" name="NSIM">     4</i>
   <i type="int" name="NBLK">    -1</i>
   <i type="logical" name="LPLANE"> T  </i>
   <i type="logical" name="LSCALAPACK"> T  </i>
   <i type="logical" name="LSCAAWARE"> F  </i>
   <i type="logical" name="LSCALU"> F  </i>
   <i type="logical" name="LASYNC"> F  </i>
   <i type="logical" name="LORBITALREAL"> F  </i>
  </separator>
  <separator name="miscellaneous" >
   <i type="int" name="IDIOT">     3</i>
   <i type="int" name="ISPECIAL">     0</i>
   <i type="logical" name="LMUSIC"> F  </i>
   <v name="POMASS">      1.00000000     16.00000000     14.00100000     12.01100000</v>
   <v name="DARWINR">      0.00000000      0.00000000      0.00000000      0.00000000</v>
   <v name="DARWINV">      1.00000000      1.00000000      1.00000000      1.00000000</v>
   <i type="logical" name="LCORR"> T  </i>
  </separator>
  <i type="logical" name="GGA_COMPAT"> T  </i>
  <i type="logical" name="LBERRY"> F  </i>
  <i type="int" name="ICORELEVEL">     0</i>
  <i type="logical" name="LDAU"> F  </i>
  <i type="int" name="I_CONSTRAINED_M">     0</i>
  <separator name="electronic exchange-correlation" >
   <i type="string" name="GGA">PE</i>
   <i type="int" name="VOSKOWN">     0</i>
   <i type="logical" name="LHFCALC"> F  </i>
   <i type="string" name="PRECFOCK"></i>
   <i type="logical" name="LSYMGRAD"> F  </i>
   <i type="logical" name="LHFONE"> F  </i>
   <i type="logical" name="LRHFCALC"> F  </i>
   <i type="logical" name="LTHOMAS"> F  </i>
   <i type="logical" name="LMODELHF"> F  </i>
   <i name="ENCUT4O">     -1.00000000</i>
   <i type="int" name="EXXOEP">     0</i>
   <i type="int" name="FOURORBIT">     0</i>
   <i name="AEXX">      0.00000000</i>
   <i name="HFALPHA">      0.00000000</i>
   <i name="MCALPHA">      0.00000000</i>
   <i name="ALDAX">      1.00000000</i>
   <i name="AGGAX">      1.00000000</i>
   <i name="ALDAC">      1.00000000</i>
   <i name="AGGAC">      1.00000000</i>
   <i type="int" name="NKREDX">     1</i>
   <i type="int" name="NKREDY">     1</i>
   <i type="int" name="NKREDZ">     1</i>
   <i type="logical" name="SHIFTRED"> F  </i>
   <i type="logical" name="ODDONLY"> F  </i>
   <i type="logical" name="EVENONLY"> F  </i>
   <i type="int" name="LMAXFOCK">     0</i>
   <i type="int" name="NMAXFOCKAE">     0</i>
   <i type="logical" name="LFOCKAEDFT"> F  </i>
   <i name="HFSCREEN">      0.00000000</i>
   <i name="HFSCREENC">      0.00000000</i>
   <i type="int" name="NBANDSGWLOW">     0</i>
  </separator>
  <separator name="vdW DFT" >
   <i type="logical" name="LUSE_VDW"> F  </i>
   <i name="Zab_VDW">     -0.84910000</i>
   <i name="PARAM1">      0.12340000</i>
   <i name="PARAM2">      1.00000000</i>
   <i name="PARAM3">      0.00000000</i>
  </separator>
  <separator name="model GW" >
   <i type="int" name="MODEL_GW">     0</i>
   <i name="MODEL_EPS0">     62.16242606</i>
   <i name="MODEL_ALPHA">      1.00000000</i>
  </separator>
  <separator name="linear response parameters" >
   <i type="logical" name="LEPSILON"> F  </i>
   <i type="logical" name="LRPA"> F  </i>
   <i type="logical" name="LNABLA"> F  </i>
   <i type="logical" name="LVEL"> F  </i>
   <i type="int" name="KINTER">     0</i>
   <i name="CSHIFT">      0.10000000</i>
   <i name="OMEGAMAX">     -1.00000000</i>
   <i name="DEG_THRESHOLD">      0.00200000</i>
   <i name="RTIME">     -0.10000000</i>
   <i name="WPLASMAI">      0.00000000</i>
   <v name="DFIELD">      0.00000000      0.00000000      0.00000000</v>
   <v name="WPLASMA">      0.00000000      0.00000000      0.00000000      0.00000000      0.00000000      0.00000000      0.00000000      0.00000000      0.00000000</v>
  </separator>
  <separator name="orbital magnetization" >
   <i type="logical" name="NUCIND"> F  </i>
   <v name="MAGPOS">      0.00000000      0.00000000      0.00000000</v>
   <i type="logical" name="LNICSALL"> T  </i>
   <i type="logical" name="ORBITALMAG"> F  </i>
   <i type="logical" name="LMAGBLOCH"> F  </i>
   <i type="logical" name="LCHIMAG"> F  </i>
   <i type="logical" name="LGAUGE"> T  </i>
   <i type="int" name="MAGATOM">     0</i>
   <v name="MAGDIPOL">      0.00000000      0.00000000      0.00000000</v>
   <v name="AVECCONST">      0.00000000      0.00000000      0.00000000</v>
  </separator>
  <separator name="response functions" >
   <i type="logical" name="LADDER"> F  </i>
   <i type="logical" name="LRPAFORCE"> F  </i>
   <i type="logical" name="LFXC"> F  </i>
   <i type="logical" name="LHARTREE"> T  </i>
   <i type="int" name="IBSE">     0</i>
   <v type="int" name="KPOINT">    -1     0     0     0</v>
   <i type="logical" name="LTCTE"> F  </i>
   <i type="logical" name="LTETE"> F  </i>
   <i type="logical" name="LTRIPLET"> F  </i>
   <i type="logical" name="LFXCEPS"> F  </i>
   <i type="logical" name="LFXHEG"> F  </i>
   <i type="int" name="NATURALO">     2</i>
   <i type="logical" name="L2ORDER"> F  </i>
   <i type="logical" name="LMP2LT"> F  </i>
   <i type="logical" name="LUSEW"> F  </i>
   <i name="ENCUTGW">     -2.00000000</i>
   <i name="ENCUTGWSOFT">     -2.00000000</i>
   <i name="ENCUTLF">     -1.00000000</i>
   <i type="int" name="LMAXMP2">    -1</i>
   <i name="SCISSOR">      0.00000000</i>
   <i type="int" name="NOMEGA">     0</i>
   <i type="int" name="NOMEGAR">     0</i>
   <i type="int" name="NBANDSGW">    -1</i>
   <i type="int" name="NBANDSO">    -1</i>
   <i type="int" name="NBANDSV">    -1</i>
   <i type="int" name="NELM">   200</i>
   <i type="int" name="NELMHF">     1</i>
   <i type="int" name="DIM">     3</i>
   <i type="int" name="ANTIRES">     0</i>
   <i name="OMEGAMAX">    -30.00000000</i>
   <i name="OMEGAMIN">    -30.00000000</i>
   <i name="OMEGATL">   -200.00000000</i>
   <i type="int" name="OMEGAGRID">   140</i>
   <i name="CSHIFT">     -0.10000000</i>
   <i type="logical" name="SELFENERGY"> F  </i>
   <i type="logical" name="LSPECTRAL"> F  </i>
   <i type="logical" name="LSPECTRALGW"> F  </i>
   <i type="logical" name="LSINGLES"> F  </i>
   <i type="logical" name="LFERMIGW"> F  </i>
   <i type="logical" name="ODDONLYGW"> F  </i>
   <i type="logical" name="EVENONLYGW"> F  </i>
   <i type="int" name="NKREDLFX">     1</i>
   <i type="int" name="NKREDLFY">     1</i>
   <i type="int" name="NKREDLFZ">     1</i>
   <i type="int" name="MAXMEM">  2800</i>
   <i type="int" name="TELESCOPE">     0</i>
   <i type="int" name="TAUPAR">     1</i>
   <i type="int" name="OMEGAPAR">    -1</i>
   <i name="LAMBDA">      1.00000000</i>
  </separator>
  <separator name="External order field" >
   <i name="OFIELD_KAPPA">      0.00000000</i>
   <v name="OFIELD_K">      0.00000000      0.00000000      0.00000000</v>
   <i name="OFIELD_Q6_NEAR">      0.00000000</i>
   <i name="OFIELD_Q6_FAR">      0.00000000</i>
   <i name="OFIELD_A">      0.00000000</i>
  </separator>
  <separator name="solvation model" >
   <i type="logical" name="LSOL"> F  </i>
  </separator>
 </parameters>
 <atominfo>
  <atoms>      84 </atoms>
  <types>       4 </types>
  <array name="atoms" >
   <dimension dim="1">ion</dimension>
   <field type="string">element</field>
   <field type="int">atomtype</field>
   <set>
    <rc><c>H </c><c>   1</c></rc>
    <rc><c>H </c><c>   1</c></rc>
    <rc><c>H </c><c>   1</c></rc>
    <rc><c>H </c><c>   1</c></rc>
    <rc><c>H </c><c>   1</c></rc>
    <rc><c>H </c><c>   1</c></rc>
    <rc><c>H </c><c>   1</c></rc>
    <rc><c>H </c><c>   1</c></rc>
    <rc><c>H </c><c>   1</c></rc>
    <rc><c>H </c><c>   1</c></rc>
    <rc><c>H </c><c>   1</c></rc>
    <rc><c>H </c><c>   1</c></rc>
    <rc><c>H </c><c>   1</c></rc>
    <rc><c>H </c><c>   1</c></rc>
    <rc><c>H </c><c>   1</c></rc>
    <rc><c>H </c><c>   1</c></rc>
    <rc><c>H </c><c>   1</c></rc>
    <rc><c>H </c><c>   1</c></rc>
    <rc><c>H </c><c>   1</c></rc>
    <rc><c>H </c><c>   1</c></rc>
    <rc><c>H </c><c>   1</c></rc>
    <rc><c>H </c><c>   1</c></rc>
    <rc><c>H </c><c>   1</c></rc>
    <rc><c>H </c><c>   1</c></rc>
    <rc><c>H </c><c>   1</c></rc>
    <rc><c>H </c><c>   1</c></rc>
    <rc><c>H </c><c>   1</c></rc>
    <rc><c>O </c><c>   2</c></rc>
    <rc><c>O </c><c>   2</c></rc>
    <rc><c>O </c><c>   2</c></rc>
    <rc><c>O </c><c>   2</c></rc>
    <rc><c>O </c><c>   2</c></rc>
    <rc><c>O </c><c>   2</c></rc>
    <rc><c>N </c><c>   3</c></rc>
    <rc><c>N </c><c>   3</c></rc>
    <rc><c>N </c><c>   3</c></rc>
    <rc><c>C </c><c>   4</c></rc>
    <rc><c>C </c><c>   4</c></rc>
    <rc><c>C </c><c>   4</c></rc>
    <rc><c>C </c><c>   4</c></rc>
    <rc><c>C </c><c>   4</c></rc>
    <rc><c>C </c><c>   4</c></rc>
    <rc><c>C </c><c>   4</c></rc>
    <rc><c>C </c><c>   4</c></rc>
    <rc><c>C </c><c>   4</c></rc>
    <rc><c>C </c><c>   4</c></rc>
    <rc><c>C </c><c>   4</c></rc>
    <rc><c>C </c><c>   4</c></rc>
    <rc><c>C </c><c>   4</c></rc>
    <rc><c>C </c><c>   4</c></rc>
    <rc><c>C </c><c>   4</c></rc>
    <rc><c>C </c><c>   4</c></rc>
    <rc><c>C </c><c>   4</c></rc>
    <rc><c>C </c><c>   4</c></rc>
    <rc><c>C </c><c>   4</c></rc>
    <rc><c>C </c><c>   4</c></rc>
    <rc><c>C </c><c>   4</c></rc>
    <rc><c>C </c><c>   4</c></rc>
    <rc><c>C </c><c>   4</c></rc>
    <rc><c>C </c><c>   4</c></rc>
    <rc><c>C </c><c>   4</c></rc>
    <rc><c>C </c><c>   4</c></rc>
    <rc><c>C </c><c>   4</c></rc>
    <rc><c>C </c><c>   4</c></rc>
    <rc><c>C </c><c>   4</c></rc>
    <rc><c>C </c><c>   4</c></rc>
    <rc><c>C </c><c>   4</c></rc>
    <rc><c>C </c><c>   4</c></rc>
    <rc><c>C </c><c>   4</c></rc>
    <rc><c>C </c><c>   4</c></rc>
    <rc><c>C </c><c>   4</c></rc>
    <rc><c>C </c><c>   4</c></rc>
    <rc><c>C </c><c>   4</c></rc>
    <rc><c>C </c><c>   4</c></rc>
    <rc><c>C </c><c>   4</c></rc>
    <rc><c>C </c><c>   4</c></rc>
    <rc><c>C </c><c>   4</c></rc>
    <rc><c>C </c><c>   4</c></rc>
    <rc><c>C </c><c>   4</c></rc>
    <rc><c>C </c><c>   4</c></rc>
    <rc><c>C </c><c>   4</c></rc>
    <rc><c>C </c><c>   4</c></rc>
    <rc><c>C </c><c>   4</c></rc>
    <rc><c>C </c><c>   4</c></rc>
   </set>
  </array>
  <array name="atomtypes" >
   <dimension dim="1">type</dimension>
   <field type="int">atomspertype</field>
   <field type="string">element</field>
   <field>mass</field>
   <field>valence</field>
   <field type="string">pseudopotential</field>
   <set>
    <rc><c>  27</c><c>H </c><c>      1.00000000</c><c>      1.00000000</c><c>  PAW_PBE H 15Jun2001                   </c></rc>
    <rc><c>   6</c><c>O </c><c>     16.00000000</c><c>      6.00000000</c><c>  PAW_PBE O 08Apr2002                   </c></rc>
    <rc><c>   3</c><c>N </c><c>     14.00100000</c><c>      5.00000000</c><c>  PAW_PBE N 08Apr2002                   </c></rc>
    <rc><c>  48</c><c>C </c><c>     12.01100000</c><c>      4.00000000</c><c>  PAW_PBE C 08Apr2002                   </c></rc>
   </set>
  </array>
 </atominfo>
 <structure name="initialpos" >
  <crystal>
   <varray name="basis" >
    <v>      22.40976052       0.01165315       0.00000000 </v>
    <v>     -11.19474440      19.41147599       0.00000000 </v>
    <v>      -0.00000000       0.00000000      20.00000000 </v>
   </varray>
   <i name="volume">   8702.73964807 </i>
   <varray name="rec_basis" >
    <v>       0.04461003       0.02572694       0.00000000 </v>
    <v>      -0.00002678       0.05150047      -0.00000000 </v>
    <v>       0.00000000       0.00000000       0.05000000 </v>
   </varray>
  </crystal>
  <varray name="positions" >
   <v>       0.52960513       0.34130491       0.41135974 </v>
   <v>       0.46727620       0.40650110       0.40943350 </v>
   <v>       0.59835546       0.53819105       0.56664135 </v>
   <v>       0.66132718       0.47338931       0.56794996 </v>
   <v>       0.54725175       0.26434600       0.48952568 </v>
   <v>       0.73853037       0.45705847       0.48940840 </v>
   <v>       0.83304033       0.47452718       0.41131618 </v>
   <v>       0.53063801       0.17099709       0.56777815 </v>
   <v>       0.74007720       0.26565747       0.48975121 </v>
   <v>       0.27784276       0.72682339       0.49023371 </v>
   <v>       0.46986413       0.72630580       0.48957576 </v>
   <v>       0.27756553       0.53438643       0.49002056 </v>
   <v>       0.39504295       0.81932945       0.38478576 </v>
   <v>       0.66329588       0.17092678       0.41191940 </v>
   <v>       0.59782274       0.04356513       0.40979498 </v>
   <v>       0.18531636       0.55837283       0.38530663 </v>
   <v>       0.96039523       0.53662003       0.40914776 </v>
   <v>       0.44687638       0.61055170       0.38520836 </v>
   <v>       0.46546196       0.04337010       0.56620721 </v>
   <v>       0.44802358       0.82286219       0.59263536 </v>
   <v>       0.51096121       0.95064512       0.59007525 </v>
   <v>       0.96124104       0.40567113       0.56652795 </v>
   <v>       0.83360232       0.34296827       0.56807445 </v>
   <v>       0.18107207       0.60914435       0.59261739 </v>
   <v>       0.05331513       0.54413310       0.58975452 </v>
   <v>       0.39384904       0.55427561       0.59194217 </v>
   <v>       0.45869061       0.49121130       0.58960837 </v>
   <v>       0.46266380       0.92879547       0.31489390 </v>
   <v>       0.43993401       0.99992584       0.37069972 </v>
   <v>       0.07628878       0.51604427       0.31507859 </v>
   <v>       0.00532327       0.42244939       0.37112880 </v>
   <v>       0.48967087       0.54320215       0.31535157 </v>
   <v>       0.58282137       0.56606935       0.37247412 </v>
   <v>       0.45252586       0.95215278       0.36726253 </v>
   <v>       0.05279614       0.48286349       0.36756209 </v>
   <v>       0.52238432       0.55305341       0.36816918 </v>
   <v>       0.52870108       0.47701029       0.48784342 </v>
   <v>       0.60017600       0.40287338       0.48958565 </v>
   <v>       0.54455436       0.38423457       0.44581498 </v>
   <v>       0.50970394       0.42112756       0.44449153 </v>
   <v>       0.58312130       0.49479823       0.53272242 </v>
   <v>       0.61882183       0.45872401       0.53301681 </v>
   <v>       0.63854915       0.36495793       0.48975044 </v>
   <v>       0.71078493       0.40084984       0.48971724 </v>
   <v>       0.60346228       0.29275650       0.48978518 </v>
   <v>       0.74789588       0.36569529       0.48981006 </v>
   <v>       0.63940107       0.25639018       0.48989980 </v>
   <v>       0.71160634       0.29344700       0.48990357 </v>
   <v>       0.37786890       0.62614696       0.49012978 </v>
   <v>       0.30573854       0.59059469       0.49040155 </v>
   <v>       0.26936865       0.62645160       0.49052639 </v>
   <v>       0.30587085       0.69859354       0.49053023 </v>
   <v>       0.37804062       0.73490421       0.49023459 </v>
   <v>       0.41366322       0.69832464       0.49008792 </v>
   <v>       0.41627985       0.81152032       0.48928139 </v>
   <v>       0.48767432       0.95837484       0.48733518 </v>
   <v>       0.45428871       0.91878592       0.43053300 </v>
   <v>       0.41951719       0.84700784       0.43065677 </v>
   <v>       0.52691055       0.03465612       0.48775148 </v>
   <v>       0.60144127       0.18016337       0.48976030 </v>
   <v>       0.62016358       0.14308070       0.44616240 </v>
   <v>       0.58309464       0.07141280       0.44471940 </v>
   <v>       0.19278440       0.58810075       0.48956186 </v>
   <v>       0.04593394       0.51243101       0.48728971 </v>
   <v>       0.08574889       0.51838180       0.43073842 </v>
   <v>       0.15750451       0.55544206       0.43101668 </v>
   <v>       0.96964096       0.47521888       0.48757784 </v>
   <v>       0.82412419       0.40399391       0.48958856 </v>
   <v>       0.86103393       0.45952533       0.44572650 </v>
   <v>       0.93270875       0.49424169       0.44426735 </v>
   <v>       0.41612922       0.58775700       0.48918482 </v>
   <v>       0.49149440       0.51616176       0.48747878 </v>
   <v>       0.48624504       0.55046454       0.43093756 </v>
   <v>       0.44933200       0.58537444       0.43090707 </v>
   <v>       0.44963084       0.84979641       0.54662351 </v>
   <v>       0.48442374       0.92155466       0.54538570 </v>
   <v>       0.50905266       0.07138335       0.53249377 </v>
   <v>       0.54533594       0.14309576       0.53292626 </v>
   <v>       0.15430910       0.58352000       0.54665672 </v>
   <v>       0.08255963       0.54643537       0.54526019 </v>
   <v>       0.93307503       0.42090385       0.53257505 </v>
   <v>       0.86136217       0.38534245       0.53300871 </v>
   <v>       0.41994441       0.55333335       0.54622935 </v>
   <v>       0.45690219       0.51846984       0.54513537 </v>
  </varray>
 </structure>
 <calculation>
  <scstep>
   <time name="dav">  138.92  140.18</time>
   <time name="total">  139.08  140.34</time>
   <energy>
    <i name="alphaZ">     38.94033218 </i>
    <i name="ewald">  29488.60516815 </i>
    <i name="hartreedc"> -38352.95540570 </i>
    <i name="XCdc">    960.13513455 </i>
    <i name="pawpsdc">  24524.77176900 </i>
    <i name="pawaedc"> -24573.75886724 </i>
    <i name="eentropy">     -0.00000000 </i>
    <i name="bandstr">  -3461.51672181 </i>
    <i name="atom">  10788.00100292 </i>
    <i name="e_fr_energy">   -587.77758794 </i>
    <i name="e_wo_entrp">   -587.77758794 </i>
    <i name="e_0_energy">   -587.77758794 </i>
   </energy>
  </scstep>
  <scstep>
   <time name="dav">  145.34  146.61</time>
   <time name="total">  145.35  146.62</time>
   <energy>
    <i name="e_fr_energy">   -588.36196276 </i>
    <i name="e_wo_entrp">   -588.36196276 </i>
    <i name="e_0_energy">   -588.36196276 </i>
   </energy>
  </scstep>
  <scstep>
   <time name="dav">  166.26  167.75</time>
   <time name="total">  166.27  167.76</time>
   <energy>
    <i name="e_fr_energy">   -588.38017614 </i>
    <i name="e_wo_entrp">   -588.38017614 </i>
    <i name="e_0_energy">   -588.38017614 </i>
   </energy>
  </scstep>
  <scstep>
   <time name="dav">  145.76  147.09</time>
   <time name="total">  145.78  147.11</time>
   <energy>
    <i name="e_fr_energy">   -588.38048921 </i>
    <i name="e_wo_entrp">   -588.38048921 </i>
    <i name="e_0_energy">   -588.38048921 </i>
   </energy>
  </scstep>
  <scstep>
   <time name="dav">  150.89  152.22</time>
   <time name="total">  150.90  152.23</time>
   <energy>
    <i name="e_fr_energy">   -588.38050801 </i>
    <i name="e_wo_entrp">   -588.38050801 </i>
    <i name="e_0_energy">   -588.38050801 </i>
   </energy>
  </scstep>
  <scstep>
   <time name="dav">  115.33  116.37</time>
   <time name="total">  115.33  116.38</time>
   <energy>
    <i name="alphaZ">     38.94033218 </i>
    <i name="ewald">  29488.60516815 </i>
    <i name="hartreedc"> -38352.95540570 </i>
    <i name="XCdc">    960.13513455 </i>
    <i name="pawpsdc">  24524.77176900 </i>
    <i name="pawaedc"> -24573.75886724 </i>
    <i name="eentropy">     -0.00000000 </i>
    <i name="bandstr">  -3462.11964233 </i>
    <i name="atom">  10788.00100292 </i>
    <i name="e_fr_energy">   -588.38050846 </i>
    <i name="e_wo_entrp">   -588.38050846 </i>
    <i name="e_0_energy">   -588.38050846 </i>
   </energy>
  </scstep>
  <structure>
   <crystal>
    <varray name="basis" >
     <v>      22.40976052       0.01165315       0.00000000 </v>
     <v>     -11.19474440      19.41147599       0.00000000 </v>
     <v>      -0.00000000       0.00000000      20.00000000 </v>
    </varray>
    <i name="volume">   8702.73964807 </i>
    <varray name="rec_basis" >
     <v>       0.04461003       0.02572694       0.00000000 </v>
     <v>      -0.00002678       0.05150047      -0.00000000 </v>
     <v>       0.00000000       0.00000000       0.05000000 </v>
    </varray>
   </crystal>
   <varray name="positions" >
    <v>       0.52960513       0.34130491       0.41135974 </v>
    <v>       0.46727620       0.40650110       0.40943350 </v>
    <v>       0.59835546       0.53819105       0.56664135 </v>
    <v>       0.66132718       0.47338931       0.56794996 </v>
    <v>       0.54725175       0.26434600       0.48952568 </v>
    <v>       0.73853037       0.45705847       0.48940840 </v>
    <v>       0.83304033       0.47452718       0.41131618 </v>
    <v>       0.53063801       0.17099709       0.56777815 </v>
    <v>       0.74007720       0.26565747       0.48975121 </v>
    <v>       0.27784276       0.72682339       0.49023371 </v>
    <v>       0.46986413       0.72630580       0.48957576 </v>
    <v>       0.27756553       0.53438643       0.49002056 </v>
    <v>       0.39504295       0.81932945       0.38478576 </v>
    <v>       0.66329588       0.17092678       0.41191940 </v>
    <v>       0.59782274       0.04356513       0.40979498 </v>
    <v>       0.18531636       0.55837283       0.38530663 </v>
    <v>       0.96039523       0.53662003       0.40914776 </v>
    <v>       0.44687638       0.61055170       0.38520836 </v>
    <v>       0.46546196       0.04337010       0.56620721 </v>
    <v>       0.44802358       0.82286219       0.59263536 </v>
    <v>       0.51096121       0.95064512       0.59007525 </v>
    <v>       0.96124104       0.40567113       0.56652795 </v>
    <v>       0.83360232       0.34296827       0.56807445 </v>
    <v>       0.18107207       0.60914435       0.59261739 </v>
    <v>       0.05331513       0.54413310       0.58975452 </v>
    <v>       0.39384904       0.55427561       0.59194217 </v>
    <v>       0.45869061       0.49121130       0.58960837 </v>
    <v>       0.46266380       0.92879547       0.31489390 </v>
    <v>       0.43993401       0.99992584       0.37069972 </v>
    <v>       0.07628878       0.51604427       0.31507859 </v>
    <v>       0.00532327       0.42244939       0.37112880 </v>
    <v>       0.48967087       0.54320215       0.31535157 </v>
    <v>       0.58282137       0.56606935       0.37247412 </v>
    <v>       0.45252586       0.95215278       0.36726253 </v>
    <v>       0.05279614       0.48286349       0.36756209 </v>
    <v>       0.52238432       0.55305341       0.36816918 </v>
    <v>       0.52870108       0.47701029       0.48784342 </v>
    <v>       0.60017600       0.40287338       0.48958565 </v>
    <v>       0.54455436       0.38423457       0.44581498 </v>
    <v>       0.50970394       0.42112756       0.44449153 </v>
    <v>       0.58312130       0.49479823       0.53272242 </v>
    <v>       0.61882183       0.45872401       0.53301681 </v>
    <v>       0.63854915       0.36495793       0.48975044 </v>
    <v>       0.71078493       0.40084984       0.48971724 </v>
    <v>       0.60346228       0.29275650       0.48978518 </v>
    <v>       0.74789588       0.36569529       0.48981006 </v>
    <v>       0.63940107       0.25639018       0.48989980 </v>
    <v>       0.71160634       0.29344700       0.48990357 </v>
    <v>       0.37786890       0.62614696       0.49012978 </v>
    <v>       0.30573854       0.59059469       0.49040155 </v>
    <v>       0.26936865       0.62645160       0.49052639 </v>
    <v>       0.30587085       0.69859354       0.49053023 </v>
    <v>       0.37804062       0.73490421       0.49023459 </v>
    <v>       0.41366322       0.69832464       0.49008792 </v>
    <v>       0.41627985       0.81152032       0.48928139 </v>
    <v>       0.48767432       0.95837484       0.48733518 </v>
    <v>       0.45428871       0.91878592       0.43053300 </v>
    <v>       0.41951719       0.84700784       0.43065677 </v>
    <v>       0.52691055       0.03465612       0.48775148 </v>
    <v>       0.60144127       0.18016337       0.48976030 </v>
    <v>       0.62016358       0.14308070       0.44616240 </v>
    <v>       0.58309464       0.07141280       0.44471940 </v>
    <v>       0.19278440       0.58810075       0.48956186 </v>
    <v>       0.04593394       0.51243101       0.48728971 </v>
    <v>       0.08574889       0.51838180       0.43073842 </v>
    <v>       0.15750451       0.55544206       0.43101668 </v>
    <v>       0.96964096       0.47521888       0.48757784 </v>
    <v>       0.82412419       0.40399391       0.48958856 </v>
    <v>       0.86103393       0.45952533       0.44572650 </v>
    <v>       0.93270875       0.49424169       0.44426735 </v>
    <v>       0.41612922       0.58775700       0.48918482 </v>
    <v>       0.49149440       0.51616176       0.48747878 </v>
    <v>       0.48624504       0.55046454       0.43093756 </v>
    <v>       0.44933200       0.58537444       0.43090707 </v>
    <v>       0.44963084       0.84979641       0.54662351 </v>
    <v>       0.48442374       0.92155466       0.54538570 </v>
    <v>       0.50905266       0.07138335       0.53249377 </v>
    <v>       0.54533594       0.14309576       0.53292626 </v>
    <v>       0.15430910       0.58352000       0.54665672 </v>
    <v>       0.08255963       0.54643537       0.54526019 </v>
    <v>       0.93307503       0.42090385       0.53257505 </v>
    <v>       0.86136217       0.38534245       0.53300871 </v>
    <v>       0.41994441       0.55333335       0.54622935 </v>
    <v>       0.45690219       0.51846984       0.54513537 </v>
   </varray>
  </structure>
  <varray name="forces" >
   <v>       0.00055988       0.00019624       0.00039491 </v>
   <v>       0.00100865       0.00031340      -0.00019819 </v>
   <v>       0.00067932       0.00090454       0.00180380 </v>
   <v>       0.00131292       0.00027402       0.00236039 </v>
   <v>       0.00035783       0.00155834       0.00152712 </v>
   <v>       0.00014042       0.00176445       0.00131426 </v>
   <v>      -0.00004143      -0.00181519      -0.00168469 </v>
   <v>      -0.00106666      -0.00062864       0.00100473 </v>
   <v>      -0.00197372       0.00021707       0.00077105 </v>
   <v>       0.00180103      -0.00231872      -0.00027847 </v>
   <v>       0.00173074       0.00156996      -0.00172680 </v>
   <v>       0.00035200      -0.00089967       0.00016509 </v>
   <v>      -0.00087427      -0.00047210      -0.00022776 </v>
   <v>       0.00033575       0.00142507      -0.00011701 </v>
   <v>      -0.00066806       0.00111023      -0.00016753 </v>
   <v>       0.00110050       0.00042639       0.00075336 </v>
   <v>       0.00075261      -0.00198057       0.00074962 </v>
   <v>       0.00252948       0.00221298       0.00042757 </v>
   <v>      -0.00135212      -0.00047410       0.00067264 </v>
   <v>      -0.00077167       0.00131572      -0.00179452 </v>
   <v>       0.00022438      -0.00061794      -0.00234942 </v>
   <v>      -0.00162534      -0.00044635      -0.00128013 </v>
   <v>       0.00033249      -0.00239520       0.00147352 </v>
   <v>      -0.00103829       0.00009717      -0.00024417 </v>
   <v>      -0.00018482      -0.00130105      -0.00082879 </v>
   <v>       0.00066636      -0.00142875      -0.00159976 </v>
   <v>      -0.00039103      -0.00130642      -0.00171552 </v>
   <v>      -0.00366325       0.00199258       0.00184047 </v>
   <v>       0.00501662      -0.00557705      -0.00160831 </v>
   <v>       0.00077505      -0.00023292       0.00159683 </v>
   <v>       0.00063829       0.00105081      -0.00029178 </v>
   <v>      -0.00228431      -0.00114962      -0.00668671 </v>
   <v>      -0.00573964      -0.00313427       0.00338226 </v>
   <v>       0.00120902       0.00253616      -0.00728447 </v>
   <v>       0.00613392      -0.00034144       0.00136662 </v>
   <v>       0.00612922       0.00029712       0.00384471 </v>
   <v>       0.00293852      -0.00125827       0.00138882 </v>
   <v>      -0.00209125       0.00036186       0.00012815 </v>
   <v>      -0.00087442       0.00168895       0.00044935 </v>
   <v>       0.00036189       0.00099268       0.00226678 </v>
   <v>      -0.00190856       0.00118389       0.00030692 </v>
   <v>      -0.00117922       0.00155121       0.00107616 </v>
   <v>       0.00029897      -0.00076364       0.00156724 </v>
   <v>       0.00097355       0.00062911       0.00019717 </v>
   <v>      -0.00118894      -0.00198189       0.00171481 </v>
   <v>      -0.00161172      -0.00136618       0.00204556 </v>
   <v>      -0.00153328       0.00329811       0.00117525 </v>
   <v>       0.00207790      -0.00212306      -0.00025848 </v>
   <v>       0.00239202       0.00137422       0.00216418 </v>
   <v>      -0.00356823       0.00016674       0.00100699 </v>
   <v>      -0.00059486      -0.00237388      -0.00173368 </v>
   <v>       0.00009124       0.00435159      -0.00076297 </v>
   <v>      -0.00334232       0.00152451      -0.00044881 </v>
   <v>       0.00034427      -0.00020417      -0.00118822 </v>
   <v>      -0.00093957       0.00098372      -0.00343044 </v>
   <v>      -0.00544090      -0.00048109      -0.00375193 </v>
   <v>       0.00144802       0.00040701       0.00300498 </v>
   <v>      -0.00228231       0.00044803      -0.00205160 </v>
   <v>      -0.00106544       0.00440473      -0.00066231 </v>
   <v>      -0.00001720      -0.00250736       0.00027574 </v>
   <v>      -0.00143735      -0.00057294       0.00185903 </v>
   <v>      -0.00179952      -0.00029117       0.00082334 </v>
   <v>      -0.00143281      -0.00146159      -0.00185028 </v>
   <v>       0.00333472      -0.00015835      -0.00030977 </v>
   <v>      -0.00007360      -0.00245142       0.00313417 </v>
   <v>       0.00068527      -0.00039516      -0.00113437 </v>
   <v>      -0.00173201      -0.00276973      -0.00206671 </v>
   <v>       0.00195368      -0.00149037       0.00287925 </v>
   <v>       0.00071691      -0.00067705      -0.00085310 </v>
   <v>       0.00149074      -0.00065929      -0.00002053 </v>
   <v>       0.00273635       0.00130795       0.00045537 </v>
   <v>      -0.00050015       0.00088046      -0.00189973 </v>
   <v>      -0.00263400      -0.00285389       0.00398910 </v>
   <v>      -0.00208649       0.00305437      -0.00089848 </v>
   <v>      -0.00019441      -0.00121634      -0.00176846 </v>
   <v>      -0.00030701       0.00381194       0.00000078 </v>
   <v>       0.00185540      -0.00093702      -0.00215368 </v>
   <v>       0.00057504      -0.00018781       0.00077061 </v>
   <v>       0.00003734      -0.00037768      -0.00261250 </v>
   <v>      -0.00190852       0.00059978      -0.00054889 </v>
   <v>       0.00223898       0.00075971       0.00105878 </v>
   <v>       0.00265013      -0.00018165       0.00099899 </v>
   <v>      -0.00124477       0.00438062       0.00064056 </v>
   <v>       0.00167605      -0.00116242      -0.00033805 </v>
  </varray>
  <varray name="stress" >
   <v>       0.00043407       0.00459433       0.00582858 </v>
   <v>       0.00459433      -0.00197616       0.00251021 </v>
   <v>       0.00582858       0.00251021      -0.22429052 </v>
  </varray>
  <energy>
   <i name="e_fr_energy">   -590.17609223 </i>
   <i name="e_wo_entrp">   -590.17609223 </i>
   <i name="e_0_energy">     -0.00000000 </i>
  </energy>
  <time name="totalsc">  982.14  991.30</time>
  <eigenvalues>
   <array>
    <dimension dim="1">band</dimension>
    <dimension dim="2">kpoint</dimension>
    <dimension dim="3">spin</dimension>
    <field>eigene</field>
    <field>occ</field>
    <set>
     <set comment="spin 1">
      <set comment="kpoint 1">
       <r>  -30.4189    1.0000 </r>
       <r>  -30.4166    1.0000 </r>
       <r>  -30.4144    1.0000 </r>
       <r>  -26.0419    1.0000 </r>
       <r>  -26.0368    1.0000 </r>
       <r>  -26.0365    1.0000 </r>
       <r>  -22.2595    1.0000 </r>
       <r>  -22.1110    1.0000 </r>
       <r>  -22.1090    1.0000 </r>
       <r>  -21.7097    1.0000 </r>
       <r>  -21.5098    1.0000 </r>
       <r>  -21.2399    1.0000 </r>
       <r>  -21.2395    1.0000 </r>
       <r>  -20.7746    1.0000 </r>
       <r>  -20.2367    1.0000 </r>
       <r>  -20.2350    1.0000 </r>
       <r>  -19.6885    1.0000 </r>
       <r>  -19.6453    1.0000 </r>
       <r>  -19.6431    1.0000 </r>
       <r>  -19.2683    1.0000 </r>
       <r>  -19.1614    1.0000 </r>
       <r>  -19.1603    1.0000 </r>
       <r>  -18.3118    1.0000 </r>
       <r>  -18.3111    1.0000 </r>
       <r>  -18.2645    1.0000 </r>
       <r>  -18.2213    1.0000 </r>
       <r>  -18.2203    1.0000 </r>
       <r>  -18.0046    1.0000 </r>
       <r>  -17.4882    1.0000 </r>
       <r>  -17.4862    1.0000 </r>
       <r>  -17.0040    1.0000 </r>
       <r>  -16.9182    1.0000 </r>
       <r>  -16.9164    1.0000 </r>
       <r>  -15.9588    1.0000 </r>
       <r>  -15.9564    1.0000 </r>
       <r>  -15.7503    1.0000 </r>
       <r>  -15.2261    1.0000 </r>
       <r>  -15.2238    1.0000 </r>
       <r>  -15.0068    1.0000 </r>
       <r>  -15.0032    1.0000 </r>
       <r>  -15.0019    1.0000 </r>
       <r>  -14.6712    1.0000 </r>
       <r>  -14.5561    1.0000 </r>
       <r>  -14.5537    1.0000 </r>
       <r>  -14.3407    1.0000 </r>
       <r>  -13.9312    1.0000 </r>
       <r>  -13.9299    1.0000 </r>
       <r>  -13.7416    1.0000 </r>
       <r>  -13.7405    1.0000 </r>
       <r>  -13.4417    1.0000 </r>
       <r>  -13.0682    1.0000 </r>
       <r>  -13.0678    1.0000 </r>
       <r>  -12.9678    1.0000 </r>
       <r>  -12.8552    1.0000 </r>
       <r>  -12.8000    1.0000 </r>
       <r>  -12.7981    1.0000 </r>
       <r>  -12.4159    1.0000 </r>
       <r>  -12.4142    1.0000 </r>
       <r>  -12.3639    1.0000 </r>
       <r>  -12.2127    1.0000 </r>
       <r>  -12.1949    1.0000 </r>
       <r>  -12.1728    1.0000 </r>
       <r>  -12.1720    1.0000 </r>
       <r>  -11.7351    1.0000 </r>
       <r>  -11.6361    1.0000 </r>
       <r>  -11.5736    1.0000 </r>
       <r>  -11.4383    1.0000 </r>
       <r>  -11.4360    1.0000 </r>
       <r>  -11.3994    1.0000 </r>
       <r>  -11.3858    1.0000 </r>
       <r>  -11.3838    1.0000 </r>
       <r>  -11.3145    1.0000 </r>
       <r>  -10.9388    1.0000 </r>
       <r>  -10.9368    1.0000 </r>
       <r>  -10.8200    1.0000 </r>
       <r>  -10.8180    1.0000 </r>
       <r>  -10.6891    1.0000 </r>
       <r>  -10.6590    1.0000 </r>
       <r>  -10.6570    1.0000 </r>
       <r>  -10.5712    1.0000 </r>
       <r>  -10.2987    1.0000 </r>
       <r>  -10.1435    1.0000 </r>
       <r>  -10.1431    1.0000 </r>
       <r>   -9.9805    1.0000 </r>
       <r>   -9.9714    1.0000 </r>
       <r>   -9.9709    1.0000 </r>
       <r>   -9.6245    1.0000 </r>
       <r>   -9.5382    1.0000 </r>
       <r>   -9.5369    1.0000 </r>
       <r>   -9.4949    1.0000 </r>
       <r>   -9.4752    1.0000 </r>
       <r>   -9.4741    1.0000 </r>
       <r>   -9.2227    1.0000 </r>
       <r>   -9.1044    1.0000 </r>
       <r>   -9.1024    1.0000 </r>
       <r>   -8.9184    1.0000 </r>
       <r>   -8.8459    1.0000 </r>
       <r>   -8.8443    1.0000 </r>
       <r>   -8.7741    1.0000 </r>
       <r>   -8.7078    1.0000 </r>
       <r>   -8.7070    1.0000 </r>
       <r>   -8.4381    1.0000 </r>
       <r>   -8.3625    1.0000 </r>
       <r>   -8.3483    1.0000 </r>
       <r>   -8.3461    1.0000 </r>
       <r>   -8.0538    1.0000 </r>
       <r>   -8.0532    1.0000 </r>
       <r>   -7.9466    1.0000 </r>
       <r>   -7.7394    1.0000 </r>
       <r>   -7.7370    1.0000 </r>
       <r>   -7.3510    1.0000 </r>
       <r>   -7.3485    1.0000 </r>
       <r>   -7.3207    1.0000 </r>
       <r>   -7.1174    1.0000 </r>
       <r>   -7.1133    1.0000 </r>
       <r>   -7.0405    1.0000 </r>
       <r>   -6.9807    1.0000 </r>
       <r>   -6.9782    1.0000 </r>
       <r>   -6.8848    1.0000 </r>
       <r>   -6.7448    1.0000 </r>
       <r>   -6.7377    1.0000 </r>
       <r>   -6.5317    1.0000 </r>
       <r>   -6.5272    1.0000 </r>
       <r>   -6.4980    1.0000 </r>
       <r>   -6.2618    1.0000 </r>
       <r>   -6.2559    1.0000 </r>
       <r>   -6.1371    1.0000 </r>
       <r>   -6.1368    1.0000 </r>
       <r>   -6.1363    1.0000 </r>
       <r>   -6.1017    1.0000 </r>
       <r>   -6.0720    1.0000 </r>
       <r>   -6.0677    1.0000 </r>
       <r>   -5.6737    1.0000 </r>
       <r>   -5.3538    1.0000 </r>
       <r>   -5.3520    1.0000 </r>
       <r>   -2.9983    0.0000 </r>
       <r>   -2.9966    0.0000 </r>
       <r>   -2.9871    0.0000 </r>
       <r>   -1.9514    0.0000 </r>
       <r>   -1.9472    0.0000 </r>
       <r>   -1.6448    0.0000 </r>
       <r>   -1.6419    0.0000 </r>
       <r>   -1.6140    0.0000 </r>
       <r>   -1.3684    0.0000 </r>
       <r>   -1.2938    0.0000 </r>
       <r>   -1.2879    0.0000 </r>
       <r>   -1.0882    0.0000 </r>
       <r>   -1.0818    0.0000 </r>
       <r>   -1.0533    0.0000 </r>
       <r>   -0.9759    0.0000 </r>
       <r>   -0.9721    0.0000 </r>
       <r>   -0.7314    0.0000 </r>
       <r>   -0.3741    0.0000 </r>
       <r>   -0.2447    0.0000 </r>
       <r>   -0.2408    0.0000 </r>
       <r>   -0.0504    0.0000 </r>
       <r>   -0.0080    0.0000 </r>
       <r>   -0.0069    0.0000 </r>
       <r>    0.1123    0.0000 </r>
       <r>    0.2396    0.0000 </r>
       <r>    0.2401    0.0000 </r>
       <r>    0.3461    0.0000 </r>
       <r>    0.4258    0.0000 </r>
       <r>    0.4262    0.0000 </r>
       <r>    0.4584    0.0000 </r>
       <r>    0.6699    0.0000 </r>
       <r>    0.6724    0.0000 </r>
       <r>    0.6734    0.0000 </r>
       <r>    0.8122    0.0000 </r>
       <r>    0.8373    0.0000 </r>
       <r>    0.8388    0.0000 </r>
       <r>    0.8667    0.0000 </r>
       <r>    0.9135    0.0000 </r>
       <r>    0.9662    0.0000 </r>
       <r>    0.9682    0.0000 </r>
       <r>    1.0211    0.0000 </r>
       <r>    1.0248    0.0000 </r>
       <r>    1.0850    0.0000 </r>
       <r>    1.1079    0.0000 </r>
       <r>    1.1090    0.0000 </r>
       <r>    1.1277    0.0000 </r>
       <r>    1.1515    0.0000 </r>
       <r>    1.2374    0.0000 </r>
       <r>    1.2382    0.0000 </r>
       <r>    1.2479    0.0000 </r>
       <r>    1.3002    0.0000 </r>
       <r>    1.3821    0.0000 </r>
       <r>    1.3833    0.0000 </r>
       <r>    1.4626    0.0000 </r>
       <r>    1.4663    0.0000 </r>
       <r>    1.4714    0.0000 </r>
       <r>    1.5812    0.0000 </r>
      </set>
      <set comment="kpoint 2">
       <r>  -30.4189    1.0000 </r>
       <r>  -30.4166    1.0000 </r>
       <r>  -30.4144    1.0000 </r>
       <r>  -26.0419    1.0000 </r>
       <r>  -26.0368    1.0000 </r>
       <r>  -26.0365    1.0000 </r>
       <r>  -22.2595    1.0000 </r>
       <r>  -22.1110    1.0000 </r>
       <r>  -22.1090    1.0000 </r>
       <r>  -21.7095    1.0000 </r>
       <r>  -21.5103    1.0000 </r>
       <r>  -21.2395    1.0000 </r>
       <r>  -21.2393    1.0000 </r>
       <r>  -20.7751    1.0000 </r>
       <r>  -20.2365    1.0000 </r>
       <r>  -20.2346    1.0000 </r>
       <r>  -19.6887    1.0000 </r>
       <r>  -19.6453    1.0000 </r>
       <r>  -19.6431    1.0000 </r>
       <r>  -19.2726    1.0000 </r>
       <r>  -19.1604    1.0000 </r>
       <r>  -19.1566    1.0000 </r>
       <r>  -18.3125    1.0000 </r>
       <r>  -18.3113    1.0000 </r>
       <r>  -18.2645    1.0000 </r>
       <r>  -18.2220    1.0000 </r>
       <r>  -18.2213    1.0000 </r>
       <r>  -18.0023    1.0000 </r>
       <r>  -17.4883    1.0000 </r>
       <r>  -17.4865    1.0000 </r>
       <r>  -17.0039    1.0000 </r>
       <r>  -16.9183    1.0000 </r>
       <r>  -16.9164    1.0000 </r>
       <r>  -15.9587    1.0000 </r>
       <r>  -15.9564    1.0000 </r>
       <r>  -15.7506    1.0000 </r>
       <r>  -15.2261    1.0000 </r>
       <r>  -15.2236    1.0000 </r>
       <r>  -15.0108    1.0000 </r>
       <r>  -15.0036    1.0000 </r>
       <r>  -14.9966    1.0000 </r>
       <r>  -14.6712    1.0000 </r>
       <r>  -14.5565    1.0000 </r>
       <r>  -14.5539    1.0000 </r>
       <r>  -14.3413    1.0000 </r>
       <r>  -13.9308    1.0000 </r>
       <r>  -13.9298    1.0000 </r>
       <r>  -13.7416    1.0000 </r>
       <r>  -13.7405    1.0000 </r>
       <r>  -13.4416    1.0000 </r>
       <r>  -13.0690    1.0000 </r>
       <r>  -13.0678    1.0000 </r>
       <r>  -12.9666    1.0000 </r>
       <r>  -12.8551    1.0000 </r>
       <r>  -12.7999    1.0000 </r>
       <r>  -12.7981    1.0000 </r>
       <r>  -12.4160    1.0000 </r>
       <r>  -12.4150    1.0000 </r>
       <r>  -12.3636    1.0000 </r>
       <r>  -12.2127    1.0000 </r>
       <r>  -12.1949    1.0000 </r>
       <r>  -12.1728    1.0000 </r>
       <r>  -12.1719    1.0000 </r>
       <r>  -11.7351    1.0000 </r>
       <r>  -11.6361    1.0000 </r>
       <r>  -11.5737    1.0000 </r>
       <r>  -11.4430    1.0000 </r>
       <r>  -11.4361    1.0000 </r>
       <r>  -11.4017    1.0000 </r>
       <r>  -11.3850    1.0000 </r>
       <r>  -11.3768    1.0000 </r>
       <r>  -11.3145    1.0000 </r>
       <r>  -10.9389    1.0000 </r>
       <r>  -10.9369    1.0000 </r>
       <r>  -10.8201    1.0000 </r>
       <r>  -10.8180    1.0000 </r>
       <r>  -10.6891    1.0000 </r>
       <r>  -10.6590    1.0000 </r>
       <r>  -10.6570    1.0000 </r>
       <r>  -10.5712    1.0000 </r>
       <r>  -10.2987    1.0000 </r>
       <r>  -10.1439    1.0000 </r>
       <r>  -10.1431    1.0000 </r>
       <r>   -9.9805    1.0000 </r>
       <r>   -9.9714    1.0000 </r>
       <r>   -9.9709    1.0000 </r>
       <r>   -9.6245    1.0000 </r>
       <r>   -9.5382    1.0000 </r>
       <r>   -9.5370    1.0000 </r>
       <r>   -9.4956    1.0000 </r>
       <r>   -9.4751    1.0000 </r>
       <r>   -9.4733    1.0000 </r>
       <r>   -9.2224    1.0000 </r>
       <r>   -9.1043    1.0000 </r>
       <r>   -9.1023    1.0000 </r>
       <r>   -8.9188    1.0000 </r>
       <r>   -8.8461    1.0000 </r>
       <r>   -8.8445    1.0000 </r>
       <r>   -8.7737    1.0000 </r>
       <r>   -8.7077    1.0000 </r>
       <r>   -8.7071    1.0000 </r>
       <r>   -8.4383    1.0000 </r>
       <r>   -8.3689    1.0000 </r>
       <r>   -8.3463    1.0000 </r>
       <r>   -8.3412    1.0000 </r>
       <r>   -8.0540    1.0000 </r>
       <r>   -8.0534    1.0000 </r>
       <r>   -7.9466    1.0000 </r>
       <r>   -7.7394    1.0000 </r>
       <r>   -7.7370    1.0000 </r>
       <r>   -7.3510    1.0000 </r>
       <r>   -7.3485    1.0000 </r>
       <r>   -7.3207    1.0000 </r>
       <r>   -7.1173    1.0000 </r>
       <r>   -7.1132    1.0000 </r>
       <r>   -7.0405    1.0000 </r>
       <r>   -6.9807    1.0000 </r>
       <r>   -6.9782    1.0000 </r>
       <r>   -6.8849    1.0000 </r>
       <r>   -6.7448    1.0000 </r>
       <r>   -6.7377    1.0000 </r>
       <r>   -6.5338    1.0000 </r>
       <r>   -6.5277    1.0000 </r>
       <r>   -6.4952    1.0000 </r>
       <r>   -6.2618    1.0000 </r>
       <r>   -6.2560    1.0000 </r>
       <r>   -6.1371    1.0000 </r>
       <r>   -6.1368    1.0000 </r>
       <r>   -6.1363    1.0000 </r>
       <r>   -6.1017    1.0000 </r>
       <r>   -6.0720    1.0000 </r>
       <r>   -6.0678    1.0000 </r>
       <r>   -5.6737    1.0000 </r>
       <r>   -5.3537    1.0000 </r>
       <r>   -5.3519    1.0000 </r>
       <r>   -2.9983    0.0000 </r>
       <r>   -2.9966    0.0000 </r>
       <r>   -2.9871    0.0000 </r>
       <r>   -1.9512    0.0000 </r>
       <r>   -1.9471    0.0000 </r>
       <r>   -1.6467    0.0000 </r>
       <r>   -1.6430    0.0000 </r>
       <r>   -1.6113    0.0000 </r>
       <r>   -1.3692    0.0000 </r>
       <r>   -1.2938    0.0000 </r>
       <r>   -1.2869    0.0000 </r>
       <r>   -1.0882    0.0000 </r>
       <r>   -1.0817    0.0000 </r>
       <r>   -1.0531    0.0000 </r>
       <r>   -0.9760    0.0000 </r>
       <r>   -0.9721    0.0000 </r>
       <r>   -0.7316    0.0000 </r>
       <r>   -0.3740    0.0000 </r>
       <r>   -0.2447    0.0000 </r>
       <r>   -0.2408    0.0000 </r>
       <r>   -0.0531    0.0000 </r>
       <r>   -0.0080    0.0000 </r>
       <r>   -0.0042    0.0000 </r>
       <r>    0.1124    0.0000 </r>
       <r>    0.2399    0.0000 </r>
       <r>    0.2402    0.0000 </r>
       <r>    0.3462    0.0000 </r>
       <r>    0.4234    0.0000 </r>
       <r>    0.4260    0.0000 </r>
       <r>    0.4608    0.0000 </r>
       <r>    0.6687    0.0000 </r>
       <r>    0.6719    0.0000 </r>
       <r>    0.6745    0.0000 </r>
       <r>    0.8088    0.0000 </r>
       <r>    0.8374    0.0000 </r>
       <r>    0.8386    0.0000 </r>
       <r>    0.8671    0.0000 </r>
       <r>    0.9110    0.0000 </r>
       <r>    0.9673    0.0000 </r>
       <r>    0.9729    0.0000 </r>
       <r>    1.0207    0.0000 </r>
       <r>    1.0244    0.0000 </r>
       <r>    1.0864    0.0000 </r>
       <r>    1.1081    0.0000 </r>
       <r>    1.1086    0.0000 </r>
       <r>    1.1283    0.0000 </r>
       <r>    1.1499    0.0000 </r>
       <r>    1.2374    0.0000 </r>
       <r>    1.2396    0.0000 </r>
       <r>    1.2495    0.0000 </r>
       <r>    1.3000    0.0000 </r>
       <r>    1.3799    0.0000 </r>
       <r>    1.3826    0.0000 </r>
       <r>    1.4540    0.0000 </r>
       <r>    1.4693    0.0000 </r>
       <r>    1.4803    0.0000 </r>
       <r>    1.5797    0.0000 </r>
      </set>
      <set comment="kpoint 3">
       <r>  -30.4189    1.0000 </r>
       <r>  -30.4166    1.0000 </r>
       <r>  -30.4144    1.0000 </r>
       <r>  -26.0419    1.0000 </r>
       <r>  -26.0368    1.0000 </r>
       <r>  -26.0365    1.0000 </r>
       <r>  -22.2595    1.0000 </r>
       <r>  -22.1110    1.0000 </r>
       <r>  -22.1090    1.0000 </r>
       <r>  -21.7088    1.0000 </r>
       <r>  -21.5118    1.0000 </r>
       <r>  -21.2395    1.0000 </r>
       <r>  -21.2377    1.0000 </r>
       <r>  -20.7767    1.0000 </r>
       <r>  -20.2363    1.0000 </r>
       <r>  -20.2332    1.0000 </r>
       <r>  -19.6891    1.0000 </r>
       <r>  -19.6453    1.0000 </r>
       <r>  -19.6431    1.0000 </r>
       <r>  -19.2837    1.0000 </r>
       <r>  -19.1603    1.0000 </r>
       <r>  -19.1439    1.0000 </r>
       <r>  -18.3154    1.0000 </r>
       <r>  -18.3114    1.0000 </r>
       <r>  -18.2646    1.0000 </r>
       <r>  -18.2267    1.0000 </r>
       <r>  -18.2212    1.0000 </r>
       <r>  -17.9956    1.0000 </r>
       <r>  -17.4884    1.0000 </r>
       <r>  -17.4873    1.0000 </r>
       <r>  -17.0038    1.0000 </r>
       <r>  -16.9186    1.0000 </r>
       <r>  -16.9164    1.0000 </r>
       <r>  -15.9585    1.0000 </r>
       <r>  -15.9562    1.0000 </r>
       <r>  -15.7518    1.0000 </r>
       <r>  -15.2265    1.0000 </r>
       <r>  -15.2229    1.0000 </r>
       <r>  -15.0162    1.0000 </r>
       <r>  -15.0030    1.0000 </r>
       <r>  -14.9893    1.0000 </r>
       <r>  -14.6711    1.0000 </r>
       <r>  -14.5576    1.0000 </r>
       <r>  -14.5544    1.0000 </r>
       <r>  -14.3432    1.0000 </r>
       <r>  -13.9300    1.0000 </r>
       <r>  -13.9294    1.0000 </r>
       <r>  -13.7417    1.0000 </r>
       <r>  -13.7405    1.0000 </r>
       <r>  -13.4416    1.0000 </r>
       <r>  -13.0711    1.0000 </r>
       <r>  -13.0678    1.0000 </r>
       <r>  -12.9632    1.0000 </r>
       <r>  -12.8551    1.0000 </r>
       <r>  -12.7997    1.0000 </r>
       <r>  -12.7981    1.0000 </r>
       <r>  -12.4177    1.0000 </r>
       <r>  -12.4156    1.0000 </r>
       <r>  -12.3627    1.0000 </r>
       <r>  -12.2128    1.0000 </r>
       <r>  -12.1949    1.0000 </r>
       <r>  -12.1728    1.0000 </r>
       <r>  -12.1719    1.0000 </r>
       <r>  -11.7351    1.0000 </r>
       <r>  -11.6364    1.0000 </r>
       <r>  -11.5738    1.0000 </r>
       <r>  -11.4542    1.0000 </r>
       <r>  -11.4364    1.0000 </r>
       <r>  -11.4037    1.0000 </r>
       <r>  -11.3844    1.0000 </r>
       <r>  -11.3619    1.0000 </r>
       <r>  -11.3144    1.0000 </r>
       <r>  -10.9393    1.0000 </r>
       <r>  -10.9372    1.0000 </r>
       <r>  -10.8204    1.0000 </r>
       <r>  -10.8180    1.0000 </r>
       <r>  -10.6890    1.0000 </r>
       <r>  -10.6590    1.0000 </r>
       <r>  -10.6570    1.0000 </r>
       <r>  -10.5712    1.0000 </r>
       <r>  -10.2987    1.0000 </r>
       <r>  -10.1449    1.0000 </r>
       <r>  -10.1432    1.0000 </r>
       <r>   -9.9805    1.0000 </r>
       <r>   -9.9715    1.0000 </r>
       <r>   -9.9708    1.0000 </r>
       <r>   -9.6245    1.0000 </r>
       <r>   -9.5381    1.0000 </r>
       <r>   -9.5371    1.0000 </r>
       <r>   -9.4976    1.0000 </r>
       <r>   -9.4749    1.0000 </r>
       <r>   -9.4709    1.0000 </r>
       <r>   -9.2215    1.0000 </r>
       <r>   -9.1042    1.0000 </r>
       <r>   -9.1019    1.0000 </r>
       <r>   -8.9199    1.0000 </r>
       <r>   -8.8471    1.0000 </r>
       <r>   -8.8448    1.0000 </r>
       <r>   -8.7726    1.0000 </r>
       <r>   -8.7078    1.0000 </r>
       <r>   -8.7069    1.0000 </r>
       <r>   -8.4388    1.0000 </r>
       <r>   -8.3795    1.0000 </r>
       <r>   -8.3448    1.0000 </r>
       <r>   -8.3305    1.0000 </r>
       <r>   -8.0545    1.0000 </r>
       <r>   -8.0540    1.0000 </r>
       <r>   -7.9466    1.0000 </r>
       <r>   -7.7395    1.0000 </r>
       <r>   -7.7370    1.0000 </r>
       <r>   -7.3509    1.0000 </r>
       <r>   -7.3484    1.0000 </r>
       <r>   -7.3207    1.0000 </r>
       <r>   -7.1172    1.0000 </r>
       <r>   -7.1129    1.0000 </r>
       <r>   -7.0408    1.0000 </r>
       <r>   -6.9806    1.0000 </r>
       <r>   -6.9781    1.0000 </r>
       <r>   -6.8852    1.0000 </r>
       <r>   -6.7447    1.0000 </r>
       <r>   -6.7377    1.0000 </r>
       <r>   -6.5396    1.0000 </r>
       <r>   -6.5281    1.0000 </r>
       <r>   -6.4885    1.0000 </r>
       <r>   -6.2620    1.0000 </r>
       <r>   -6.2563    1.0000 </r>
       <r>   -6.1371    1.0000 </r>
       <r>   -6.1368    1.0000 </r>
       <r>   -6.1363    1.0000 </r>
       <r>   -6.1017    1.0000 </r>
       <r>   -6.0720    1.0000 </r>
       <r>   -6.0679    1.0000 </r>
       <r>   -5.6740    1.0000 </r>
       <r>   -5.3537    1.0000 </r>
       <r>   -5.3519    1.0000 </r>
       <r>   -2.9983    0.0000 </r>
       <r>   -2.9966    0.0000 </r>
       <r>   -2.9871    0.0000 </r>
       <r>   -1.9506    0.0000 </r>
       <r>   -1.9469    0.0000 </r>
       <r>   -1.6533    0.0000 </r>
       <r>   -1.6434    0.0000 </r>
       <r>   -1.6051    0.0000 </r>
       <r>   -1.3715    0.0000 </r>
       <r>   -1.2938    0.0000 </r>
       <r>   -1.2840    0.0000 </r>
       <r>   -1.0883    0.0000 </r>
       <r>   -1.0816    0.0000 </r>
       <r>   -1.0527    0.0000 </r>
       <r>   -0.9763    0.0000 </r>
       <r>   -0.9723    0.0000 </r>
       <r>   -0.7322    0.0000 </r>
       <r>   -0.3739    0.0000 </r>
       <r>   -0.2445    0.0000 </r>
       <r>   -0.2407    0.0000 </r>
       <r>   -0.0596    0.0000 </r>
       <r>   -0.0083    0.0000 </r>
       <r>    0.0027    0.0000 </r>
       <r>    0.1126    0.0000 </r>
       <r>    0.2400    0.0000 </r>
       <r>    0.2417    0.0000 </r>
       <r>    0.3467    0.0000 </r>
       <r>    0.4177    0.0000 </r>
       <r>    0.4257    0.0000 </r>
       <r>    0.4667    0.0000 </r>
       <r>    0.6663    0.0000 </r>
       <r>    0.6702    0.0000 </r>
       <r>    0.6767    0.0000 </r>
       <r>    0.8006    0.0000 </r>
       <r>    0.8343    0.0000 </r>
       <r>    0.8402    0.0000 </r>
       <r>    0.8671    0.0000 </r>
       <r>    0.9077    0.0000 </r>
       <r>    0.9683    0.0000 </r>
       <r>    0.9849    0.0000 </r>
       <r>    1.0199    0.0000 </r>
       <r>    1.0247    0.0000 </r>
       <r>    1.0896    0.0000 </r>
       <r>    1.1063    0.0000 </r>
       <r>    1.1099    0.0000 </r>
       <r>    1.1298    0.0000 </r>
       <r>    1.1461    0.0000 </r>
       <r>    1.2371    0.0000 </r>
       <r>    1.2435    0.0000 </r>
       <r>    1.2542    0.0000 </r>
       <r>    1.2995    0.0000 </r>
       <r>    1.3736    0.0000 </r>
       <r>    1.3808    0.0000 </r>
       <r>    1.4458    0.0000 </r>
       <r>    1.4731    0.0000 </r>
       <r>    1.4940    0.0000 </r>
       <r>    1.5758    0.0000 </r>
      </set>
      <set comment="kpoint 4">
       <r>  -30.4189    1.0000 </r>
       <r>  -30.4166    1.0000 </r>
       <r>  -30.4144    1.0000 </r>
       <r>  -26.0419    1.0000 </r>
       <r>  -26.0368    1.0000 </r>
       <r>  -26.0365    1.0000 </r>
       <r>  -22.2595    1.0000 </r>
       <r>  -22.1111    1.0000 </r>
       <r>  -22.1091    1.0000 </r>
       <r>  -21.7078    1.0000 </r>
       <r>  -21.5143    1.0000 </r>
       <r>  -21.2395    1.0000 </r>
       <r>  -21.2349    1.0000 </r>
       <r>  -20.7793    1.0000 </r>
       <r>  -20.2362    1.0000 </r>
       <r>  -20.2305    1.0000 </r>
       <r>  -19.6897    1.0000 </r>
       <r>  -19.6453    1.0000 </r>
       <r>  -19.6431    1.0000 </r>
       <r>  -19.2984    1.0000 </r>
       <r>  -19.1603    1.0000 </r>
       <r>  -19.1265    1.0000 </r>
       <r>  -18.3207    1.0000 </r>
       <r>  -18.3115    1.0000 </r>
       <r>  -18.2646    1.0000 </r>
       <r>  -18.2333    1.0000 </r>
       <r>  -18.2211    1.0000 </r>
       <r>  -17.9854    1.0000 </r>
       <r>  -17.4891    1.0000 </r>
       <r>  -17.4881    1.0000 </r>
       <r>  -17.0035    1.0000 </r>
       <r>  -16.9191    1.0000 </r>
       <r>  -16.9164    1.0000 </r>
       <r>  -15.9582    1.0000 </r>
       <r>  -15.9560    1.0000 </r>
       <r>  -15.7537    1.0000 </r>
       <r>  -15.2273    1.0000 </r>
       <r>  -15.2215    1.0000 </r>
       <r>  -15.0213    1.0000 </r>
       <r>  -15.0019    1.0000 </r>
       <r>  -14.9811    1.0000 </r>
       <r>  -14.6710    1.0000 </r>
       <r>  -14.5596    1.0000 </r>
       <r>  -14.5551    1.0000 </r>
       <r>  -14.3463    1.0000 </r>
       <r>  -13.9297    1.0000 </r>
       <r>  -13.9279    1.0000 </r>
       <r>  -13.7418    1.0000 </r>
       <r>  -13.7406    1.0000 </r>
       <r>  -13.4414    1.0000 </r>
       <r>  -13.0742    1.0000 </r>
       <r>  -13.0677    1.0000 </r>
       <r>  -12.9578    1.0000 </r>
       <r>  -12.8550    1.0000 </r>
       <r>  -12.7994    1.0000 </r>
       <r>  -12.7978    1.0000 </r>
       <r>  -12.4215    1.0000 </r>
       <r>  -12.4157    1.0000 </r>
       <r>  -12.3615    1.0000 </r>
       <r>  -12.2130    1.0000 </r>
       <r>  -12.1950    1.0000 </r>
       <r>  -12.1727    1.0000 </r>
       <r>  -12.1718    1.0000 </r>
       <r>  -11.7351    1.0000 </r>
       <r>  -11.6369    1.0000 </r>
       <r>  -11.5741    1.0000 </r>
       <r>  -11.4678    1.0000 </r>
       <r>  -11.4370    1.0000 </r>
       <r>  -11.4046    1.0000 </r>
       <r>  -11.3836    1.0000 </r>
       <r>  -11.3446    1.0000 </r>
       <r>  -11.3141    1.0000 </r>
       <r>  -10.9398    1.0000 </r>
       <r>  -10.9377    1.0000 </r>
       <r>  -10.8213    1.0000 </r>
       <r>  -10.8179    1.0000 </r>
       <r>  -10.6890    1.0000 </r>
       <r>  -10.6590    1.0000 </r>
       <r>  -10.6570    1.0000 </r>
       <r>  -10.5713    1.0000 </r>
       <r>  -10.2987    1.0000 </r>
       <r>  -10.1467    1.0000 </r>
       <r>  -10.1432    1.0000 </r>
       <r>   -9.9805    1.0000 </r>
       <r>   -9.9717    1.0000 </r>
       <r>   -9.9707    1.0000 </r>
       <r>   -9.6245    1.0000 </r>
       <r>   -9.5380    1.0000 </r>
       <r>   -9.5372    1.0000 </r>
       <r>   -9.5001    1.0000 </r>
       <r>   -9.4747    1.0000 </r>
       <r>   -9.4677    1.0000 </r>
       <r>   -9.2200    1.0000 </r>
       <r>   -9.1041    1.0000 </r>
       <r>   -9.1012    1.0000 </r>
       <r>   -8.9217    1.0000 </r>
       <r>   -8.8490    1.0000 </r>
       <r>   -8.8449    1.0000 </r>
       <r>   -8.7708    1.0000 </r>
       <r>   -8.7086    1.0000 </r>
       <r>   -8.7059    1.0000 </r>
       <r>   -8.4396    1.0000 </r>
       <r>   -8.3905    1.0000 </r>
       <r>   -8.3426    1.0000 </r>
       <r>   -8.3192    1.0000 </r>
       <r>   -8.0554    1.0000 </r>
       <r>   -8.0550    1.0000 </r>
       <r>   -7.9466    1.0000 </r>
       <r>   -7.7396    1.0000 </r>
       <r>   -7.7370    1.0000 </r>
       <r>   -7.3509    1.0000 </r>
       <r>   -7.3483    1.0000 </r>
       <r>   -7.3207    1.0000 </r>
       <r>   -7.1170    1.0000 </r>
       <r>   -7.1124    1.0000 </r>
       <r>   -7.0412    1.0000 </r>
       <r>   -6.9804    1.0000 </r>
       <r>   -6.9780    1.0000 </r>
       <r>   -6.8857    1.0000 </r>
       <r>   -6.7446    1.0000 </r>
       <r>   -6.7377    1.0000 </r>
       <r>   -6.5470    1.0000 </r>
       <r>   -6.5282    1.0000 </r>
       <r>   -6.4801    1.0000 </r>
       <r>   -6.2623    1.0000 </r>
       <r>   -6.2567    1.0000 </r>
       <r>   -6.1371    1.0000 </r>
[...]
       <r>   -30.1415     0.0000     6.0000 </r>
       <r>   -30.0242     0.0000     6.0000 </r>
       <r>   -29.9068     0.0000     6.0000 </r>
       <r>   -29.7895     0.0000     6.0000 </r>
       <r>   -29.6721     0.0000     6.0000 </r>
       <r>   -29.5547     0.0000     6.0000 </r>
       <r>   -29.4374     0.0000     6.0000 </r>
       <r>   -29.3200     0.0000     6.0000 </r>
       <r>   -29.2027     0.0000     6.0000 </r>
       <r>   -29.0853     0.0000     6.0000 </r>
       <r>   -28.9680     0.0000     6.0000 </r>
       <r>   -28.8506     0.0000     6.0000 </r>
       <r>   -28.7333     0.0000     6.0000 </r>
       <r>   -28.6159     0.0000     6.0000 </r>
       <r>   -28.4986     0.0000     6.0000 </r>
       <r>   -28.3812     0.0000     6.0000 </r>
       <r>   -28.2638     0.0000     6.0000 </r>
       <r>   -28.1465     0.0000     6.0000 </r>
       <r>   -28.0291     0.0000     6.0000 </r>
       <r>   -27.9118     0.0000     6.0000 </r>
       <r>   -27.7944     0.0000     6.0000 </r>
       <r>   -27.6771     0.0000     6.0000 </r>
       <r>   -27.5597     0.0000     6.0000 </r>
       <r>   -27.4424     0.0000     6.0000 </r>
       <r>   -27.3250     0.0000     6.0000 </r>
       <r>   -27.2077     0.0000     6.0000 </r>
       <r>   -27.0903     0.0000     6.0000 </r>
       <r>   -26.9730     0.0000     6.0000 </r>
       <r>   -26.8556     0.0000     6.0000 </r>
       <r>   -26.7382     0.0000     6.0000 </r>
       <r>   -26.6209     0.0000     6.0000 </r>
       <r>   -26.5035     0.0000     6.0000 </r>
       <r>   -26.3862     0.0000     6.0000 </r>
       <r>   -26.2688     0.0000     6.0000 </r>
       <r>   -26.1515     0.0000     6.0000 </r>
       <r>   -26.0341    36.4913    10.2824 </r>
       <r>   -25.9168     0.0000    12.0000 </r>
       <r>   -25.7994     0.0000    12.0000 </r>
       <r>   -25.6821     0.0000    12.0000 </r>
       <r>   -25.5647     0.0000    12.0000 </r>
       <r>   -25.4473     0.0000    12.0000 </r>
       <r>   -25.3300     0.0000    12.0000 </r>
       <r>   -25.2126     0.0000    12.0000 </r>
       <r>   -25.0953     0.0000    12.0000 </r>
       <r>   -24.9779     0.0000    12.0000 </r>
       <r>   -24.8606     0.0000    12.0000 </r>
       <r>   -24.7432     0.0000    12.0000 </r>
       <r>   -24.6259     0.0000    12.0000 </r>
       <r>   -24.5085     0.0000    12.0000 </r>
       <r>   -24.3912     0.0000    12.0000 </r>
       <r>   -24.2738     0.0000    12.0000 </r>
       <r>   -24.1564     0.0000    12.0000 </r>
       <r>   -24.0391     0.0000    12.0000 </r>
       <r>   -23.9217     0.0000    12.0000 </r>
       <r>   -23.8044     0.0000    12.0000 </r>
       <r>   -23.6870     0.0000    12.0000 </r>
       <r>   -23.5697     0.0000    12.0000 </r>
       <r>   -23.4523     0.0000    12.0000 </r>
       <r>   -23.3350     0.0000    12.0000 </r>
       <r>   -23.2176     0.0000    12.0000 </r>
       <r>   -23.1003     0.0000    12.0000 </r>
       <r>   -22.9829     0.0000    12.0000 </r>
       <r>   -22.8655     0.0000    12.0000 </r>
       <r>   -22.7482     0.0000    12.0000 </r>
       <r>   -22.6308     0.0000    12.0000 </r>
       <r>   -22.5135     0.0000    12.0000 </r>
       <r>   -22.3961     0.0000    12.0000 </r>
       <r>   -22.2788     0.0432    12.0051 </r>
       <r>   -22.1614     0.0000    14.0000 </r>
       <r>   -22.0441    34.0848    18.0000 </r>
       <r>   -21.9267     0.0000    18.0000 </r>
       <r>   -21.8094     0.0000    18.0000 </r>
       <r>   -21.6920     5.2100    18.6114 </r>
       <r>   -21.5747    12.1320    21.0904 </r>
       <r>   -21.4573     4.2606    22.0000 </r>
       <r>   -21.3399     0.0000    22.0000 </r>
       <r>   -21.2226    20.1741    24.3675 </r>
       <r>   -21.1052    10.7935    26.0000 </r>
       <r>   -20.9879     0.0000    26.0000 </r>
       <r>   -20.8705     1.2539    26.1472 </r>
       <r>   -20.7532     6.8155    27.9998 </r>
       <r>   -20.6358     0.0000    28.0000 </r>
       <r>   -20.5185     0.0000    28.0000 </r>
       <r>   -20.4011     0.0000    28.0000 </r>
       <r>   -20.2838     0.0000    28.0000 </r>
       <r>   -20.1664    24.4720    30.8719 </r>
       <r>   -20.0490     0.0000    32.0000 </r>
       <r>   -19.9317     0.0000    32.0000 </r>
       <r>   -19.8143     0.0000    32.0000 </r>
       <r>   -19.6970    12.8842    33.5120 </r>
       <r>   -19.5796    34.0848    38.0000 </r>
       <r>   -19.4623     7.7316    38.9073 </r>
       <r>   -19.3449     2.8967    39.6066 </r>
       <r>   -19.2276     2.2723    40.0000 </r>
       <r>   -19.1102    19.3519    42.2710 </r>
       <r>   -18.9929     1.8690    42.5860 </r>
       <r>   -18.8755     1.7401    42.9042 </r>
       <r>   -18.7581     5.8075    43.7149 </r>
       <r>   -18.6408     1.9203    44.2254 </r>
       <r>   -18.5234     5.1801    45.0746 </r>
       <r>   -18.4061     1.8733    45.4198 </r>
       <r>   -18.2887    20.7766    48.0049 </r>
       <r>   -18.1714    20.4509    54.0000 </r>
       <r>   -18.0540     0.0000    54.0000 </r>
       <r>   -17.9367     3.6407    54.4273 </r>
       <r>   -17.8193     2.9315    54.9107 </r>
       <r>   -17.7020     4.2606    56.0000 </r>
       <r>   -17.5846     0.0002    56.0000 </r>
       <r>   -17.4673    27.8100    59.9970 </r>
       <r>   -17.3499     0.0000    60.0000 </r>
       <r>   -17.2325     0.0000    60.0000 </r>
       <r>   -17.1152     0.0000    60.0000 </r>
       <r>   -16.9978     7.4491    60.8742 </r>
       <r>   -16.8805    34.0848    66.0000 </r>
       <r>   -16.7631     0.0000    66.0000 </r>
       <r>   -16.6458     0.0000    66.0000 </r>
       <r>   -16.5284     0.0000    66.0000 </r>
       <r>   -16.4111     0.0000    66.0000 </r>
       <r>   -16.2937     0.0000    66.0000 </r>
       <r>   -16.1764     0.0000    66.0000 </r>
       <r>   -16.0590     0.0000    66.0000 </r>
       <r>   -15.9416    27.0284    69.1719 </r>
       <r>   -15.8243     0.2387    70.0280 </r>
       <r>   -15.7069     6.2489    72.0000 </r>
       <r>   -15.5896     0.0000    72.0000 </r>
       <r>   -15.4722     0.0000    72.0000 </r>
       <r>   -15.3549     0.0000    72.0000 </r>
       <r>   -15.2375    12.3927    73.4543 </r>
       <r>   -15.1202    11.3616    76.0000 </r>
       <r>   -15.0028    18.7362    78.1988 </r>
       <r>   -14.8855     9.1165    80.7365 </r>
       <r>   -14.7681     7.6509    81.7979 </r>
       <r>   -14.6507    23.5552    84.9310 </r>
       <r>   -14.5334    23.2865    87.9994 </r>
       <r>   -14.4160     4.5633    88.5355 </r>
       <r>   -14.2987     4.8287    90.0000 </r>
       <r>   -14.1813     0.0000    90.0000 </r>
       <r>   -14.0640     0.0000    90.0000 </r>
       <r>   -13.9466     0.0681    90.0080 </r>
       <r>   -13.8293    12.2137    94.0000 </r>
       <r>   -13.7119    34.0845    98.0000 </r>
       <r>   -13.5946     0.0000    98.0000 </r>
       <r>   -13.4772     0.0000    98.0000 </r>
       <r>   -13.3598    11.6456   100.0000 </r>
       <r>   -13.2425     0.0000   100.0000 </r>
       <r>   -13.1251     3.1953   100.3750 </r>
       <r>   -13.0078    20.7349   104.0000 </r>
       <r>   -12.8904     6.1149   104.7176 </r>
       <r>   -12.7731    34.8323   110.7544 </r>
       <r>   -12.6557     5.9648   112.0000 </r>
       <r>   -12.5384     7.2831   112.8547 </r>
       <r>   -12.4210     8.7788   114.2302 </r>
       <r>   -12.3037    17.0424   118.0000 </r>
       <r>   -12.1863    33.0419   121.8776 </r>
       <r>   -12.0690     0.0000   126.0000 </r>
       <r>   -11.9516     0.0000   126.0000 </r>
       <r>   -11.8342     0.0000   126.0000 </r>
       <r>   -11.7169    16.9903   127.9939 </r>
       <r>   -11.5995    20.4708   130.4023 </r>
       <r>   -11.4822     4.9658   133.7161 </r>
       <r>   -11.3648    34.0438   139.1952 </r>
       <r>   -11.2475    19.2232   142.5226 </r>
       <r>   -11.1301     2.5043   142.9272 </r>
       <r>   -11.0128     7.3864   144.0002 </r>
       <r>   -10.8954    25.8479   148.0000 </r>
       <r>   -10.7781    28.1193   151.9999 </r>
       <r>   -10.6607    29.5511   155.4679 </r>
       <r>   -10.5433    17.0420   160.0000 </r>
       <r>   -10.4260     0.0000   160.0000 </r>
       <r>   -10.3086     1.4357   160.1685 </r>
       <r>   -10.1913     7.4700   162.8766 </r>
       <r>   -10.0739    20.1668   166.0000 </r>
       <r>    -9.9566    50.1330   171.8833 </r>
       <r>    -9.8392     0.0000   172.0000 </r>
       <r>    -9.7219     0.0000   172.0000 </r>
       <r>    -9.6045    17.0041   173.9955 </r>
       <r>    -9.4872    51.1928   180.0077 </r>
       <r>    -9.3698    12.7818   184.0000 </r>
       <r>    -9.2524     0.0000   184.0000 </r>
       <r>    -9.1351    13.9177   186.0000 </r>
       <r>    -9.0177    13.9180   190.0000 </r>
       <r>    -8.9004    10.3661   192.1165 </r>
       <r>    -8.7830    21.4868   196.0216 </r>
       <r>    -8.6657    28.7922   201.0789 </r>
       <r>    -8.5483     6.6763   202.4502 </r>
       <r>    -8.4310    18.9367   205.3223 </r>
       <r>    -8.3136     9.5180   206.8836 </r>
       <r>    -8.1963    10.2473   209.0692 </r>
       <r>    -8.0789    19.2721   212.2617 </r>
       <r>    -7.9616     0.3530   214.0414 </r>
       <r>    -7.8442     0.0000   216.0000 </r>
       <r>    -7.7268    32.6295   219.8292 </r>
       <r>    -7.6095     0.0000   220.0000 </r>
       <r>    -7.4921     0.0000   220.0000 </r>
       <r>    -7.3748     0.0055   220.0006 </r>
       <r>    -7.2574    17.0424   226.0000 </r>
       <r>    -7.1401     0.0065   226.0008 </r>
       <r>    -7.0227    28.6711   231.9980 </r>
       <r>    -6.9054    38.1813   236.4807 </r>
       <r>    -6.7880     0.0000   238.0000 </r>
       <r>    -6.6707    34.0848   242.0000 </r>
       <r>    -6.5533    14.7177   243.7272 </r>
       <r>    -6.4359     4.3150   246.5064 </r>
       <r>    -6.3186    10.9630   248.0532 </r>
       <r>    -6.2012    23.8594   252.0000 </r>
       <r>    -6.0839    71.5538   260.3972 </r>
       <r>    -5.9665     0.0000   264.0000 </r>
       <r>    -5.8492     0.0000   264.0000 </r>
       <r>    -5.7318     0.0000   264.0000 </r>
       <r>    -5.6145    17.0424   266.0000 </r>
       <r>    -5.4971     0.0000   266.0000 </r>
       <r>    -5.3798     0.0020   266.0002 </r>
       <r>    -5.2624     0.0000   270.0000 </r>
       <r>    -5.1450     0.0000   270.0000 </r>
       <r>    -5.0277     0.0000   270.0000 </r>
       <r>    -4.9103     0.0000   270.0000 </r>
       <r>    -4.7930     0.0000   270.0000 </r>
       <r>    -4.6756     0.0000   270.0000 </r>
       <r>    -4.5583     0.0000   270.0000 </r>
       <r>    -4.4409     0.0000   270.0000 </r>
       <r>    -4.3236     0.0000   270.0000 </r>
       <r>    -4.2062     0.0000   270.0000 </r>
       <r>    -4.0889     0.0000   270.0000 </r>
       <r>    -3.9715     0.0000   270.0000 </r>
       <r>    -3.8541     0.0000   270.0000 </r>
       <r>    -3.7368     0.0000   270.0000 </r>
       <r>    -3.6194     0.0000   270.0000 </r>
       <r>    -3.5021     0.0000   270.0000 </r>
       <r>    -3.3847     0.0000   270.0000 </r>
       <r>    -3.2674     0.0000   270.0000 </r>
       <r>    -3.1500     0.0000   270.0000 </r>
       <r>    -3.0327     0.0000   270.0000 </r>
       <r>    -2.9153    17.0424   276.0000 </r>
       <r>    -2.7980     0.0000   276.0000 </r>
       <r>    -2.6806     0.0000   276.0000 </r>
       <r>    -2.5633     0.0000   276.0000 </r>
       <r>    -2.4459     0.0000   276.0000 </r>
       <r>    -2.3285     0.0000   276.0000 </r>
       <r>    -2.2112     0.0000   276.0000 </r>
       <r>    -2.0938     0.0000   276.0000 </r>
       <r>    -1.9765     0.0011   276.0001 </r>
       <r>    -1.8591    13.2734   279.9910 </r>
       <r>    -1.7418    11.0197   281.2932 </r>
       <r>    -1.6244    21.2177   283.9900 </r>
       <r>    -1.5071    14.0828   285.9527 </r>
       <r>    -1.3897    13.5357   287.5885 </r>
       <r>    -1.2724    19.4395   290.2813 </r>
       <r>    -1.1550    11.6758   291.9369 </r>
       <r>    -1.0376    40.9112   296.8011 </r>
       <r>    -0.9203    24.9955   302.0000 </r>
       <r>    -0.8029     0.0000   302.0000 </r>
       <r>    -0.6856    17.0424   304.0000 </r>
       <r>    -0.5682     0.0000   304.0000 </r>
       <r>    -0.4509     0.0000   304.0000 </r>
       <r>    -0.3335    17.0424   306.0000 </r>
       <r>    -0.2162    33.4694   309.9278 </r>
       <r>    -0.0988    13.3612   311.5680 </r>
       <r>     0.0185    20.6984   314.2624 </r>
       <r>     0.1359    23.0406   317.2039 </r>
       <r>     0.2533    18.0368   319.8500 </r>
       <r>     0.3706    30.1483   324.2047 </r>
       <r>     0.4880    28.3507   329.0937 </r>
       <r>     0.6053    17.3584   332.5704 </r>
       <r>     0.7227    20.6144   335.4859 </r>
       <r>     0.8400    36.9146   341.4321 </r>
       <r>     0.9574    34.0009   347.5568 </r>
       <r>     1.0747    31.1291   353.8198 </r>
       <r>     1.1921    42.8396   361.5607 </r>
       <r>     1.3094    50.0794   368.9104 </r>
       <r>     1.4268    34.9924   375.0398 </r>
       <r>     1.5442    44.4694   382.6187 </r>
       <r>     1.6615     1.7042   384.0000 </r>
       <r>     1.7789     0.0000   384.0000 </r>
       <r>     1.8962     0.0000   384.0000 </r>
       <r>     2.0136     0.0000   384.0000 </r>
       <r>     2.1309     0.0000   384.0000 </r>
       <r>     2.2483     0.0000   384.0000 </r>
       <r>     2.3656     0.0000   384.0000 </r>
       <r>     2.4830     0.0000   384.0000 </r>
       <r>     2.6003     0.0000   384.0000 </r>
       <r>     2.7177     0.0000   384.0000 </r>
       <r>     2.8350     0.0000   384.0000 </r>
       <r>     2.9524     0.0000   384.0000 </r>
       <r>     3.0698     0.0000   384.0000 </r>
       <r>     3.1871     0.0000   384.0000 </r>
      </set>
     </set>
    </array>
   </total>
  </dos>
 </calculation>
 <structure name="finalpos" >
  <crystal>
   <varray name="basis" >
    <v>      22.40976052       0.01165315       0.00000000 </v>
    <v>     -11.19474440      19.41147599       0.00000000 </v>
    <v>      -0.00000000       0.00000000      20.00000000 </v>
   </varray>
   <i name="volume">   8702.73964807 </i>
   <varray name="rec_basis" >
    <v>       0.04461003       0.02572694       0.00000000 </v>
    <v>      -0.00002678       0.05150047      -0.00000000 </v>
    <v>       0.00000000       0.00000000       0.05000000 </v>
   </varray>
  </crystal>
  <varray name="positions" >
   <v>       0.52960513       0.34130491       0.41135974 </v>
   <v>       0.46727620       0.40650110       0.40943350 </v>
   <v>       0.59835546       0.53819105       0.56664135 </v>
   <v>       0.66132718       0.47338931       0.56794996 </v>
   <v>       0.54725175       0.26434600       0.48952568 </v>
   <v>       0.73853037       0.45705847       0.48940840 </v>
   <v>       0.83304033       0.47452718       0.41131618 </v>
   <v>       0.53063801       0.17099709       0.56777815 </v>
   <v>       0.74007720       0.26565747       0.48975121 </v>
   <v>       0.27784276       0.72682339       0.49023371 </v>
   <v>       0.46986413       0.72630580       0.48957576 </v>
   <v>       0.27756553       0.53438643       0.49002056 </v>
   <v>       0.39504295       0.81932945       0.38478576 </v>
   <v>       0.66329588       0.17092678       0.41191940 </v>
   <v>       0.59782274       0.04356513       0.40979498 </v>
   <v>       0.18531636       0.55837283       0.38530663 </v>
   <v>       0.96039523       0.53662003       0.40914776 </v>
   <v>       0.44687638       0.61055170       0.38520836 </v>
   <v>       0.46546196       0.04337010       0.56620721 </v>
   <v>       0.44802358       0.82286219       0.59263536 </v>
   <v>       0.51096121       0.95064512       0.59007525 </v>
   <v>       0.96124104       0.40567113       0.56652795 </v>
   <v>       0.83360232       0.34296827       0.56807445 </v>
   <v>       0.18107207       0.60914435       0.59261739 </v>
   <v>       0.05331513       0.54413310       0.58975452 </v>
   <v>       0.39384904       0.55427561       0.59194217 </v>
   <v>       0.45869061       0.49121130       0.58960837 </v>
   <v>       0.46266380       0.92879547       0.31489390 </v>
   <v>       0.43993401       0.99992584       0.37069972 </v>
   <v>       0.07628878       0.51604427       0.31507859 </v>
   <v>       0.00532327       0.42244939       0.37112880 </v>
   <v>       0.48967087       0.54320215       0.31535157 </v>
   <v>       0.58282137       0.56606935       0.37247412 </v>
   <v>       0.45252586       0.95215278       0.36726253 </v>
   <v>       0.05279614       0.48286349       0.36756209 </v>
   <v>       0.52238432       0.55305341       0.36816918 </v>
   <v>       0.52870108       0.47701029       0.48784342 </v>
   <v>       0.60017600       0.40287338       0.48958565 </v>
   <v>       0.54455436       0.38423457       0.44581498 </v>
   <v>       0.50970394       0.42112756       0.44449153 </v>
   <v>       0.58312130       0.49479823       0.53272242 </v>
   <v>       0.61882183       0.45872401       0.53301681 </v>
   <v>       0.63854915       0.36495793       0.48975044 </v>
   <v>       0.71078493       0.40084984       0.48971724 </v>
   <v>       0.60346228       0.29275650       0.48978518 </v>
   <v>       0.74789588       0.36569529       0.48981006 </v>
   <v>       0.63940107       0.25639018       0.48989980 </v>
   <v>       0.71160634       0.29344700       0.48990357 </v>
   <v>       0.37786890       0.62614696       0.49012978 </v>
   <v>       0.30573854       0.59059469       0.49040155 </v>
   <v>       0.26936865       0.62645160       0.49052639 </v>
   <v>       0.30587085       0.69859354       0.49053023 </v>
   <v>       0.37804062       0.73490421       0.49023459 </v>
   <v>       0.41366322       0.69832464       0.49008792 </v>
   <v>       0.41627985       0.81152032       0.48928139 </v>
   <v>       0.48767432       0.95837484       0.48733518 </v>
   <v>       0.45428871       0.91878592       0.43053300 </v>
   <v>       0.41951719       0.84700784       0.43065677 </v>
   <v>       0.52691055       0.03465612       0.48775148 </v>
   <v>       0.60144127       0.18016337       0.48976030 </v>
   <v>       0.62016358       0.14308070       0.44616240 </v>
   <v>       0.58309464       0.07141280       0.44471940 </v>
   <v>       0.19278440       0.58810075       0.48956186 </v>
   <v>       0.04593394       0.51243101       0.48728971 </v>
   <v>       0.08574889       0.51838180       0.43073842 </v>
   <v>       0.15750451       0.55544206       0.43101668 </v>
   <v>       0.96964096       0.47521888       0.48757784 </v>
   <v>       0.82412419       0.40399391       0.48958856 </v>
   <v>       0.86103393       0.45952533       0.44572650 </v>
   <v>       0.93270875       0.49424169       0.44426735 </v>
   <v>       0.41612922       0.58775700       0.48918482 </v>
   <v>       0.49149440       0.51616176       0.48747878 </v>
   <v>       0.48624504       0.55046454       0.43093756 </v>
   <v>       0.44933200       0.58537444       0.43090707 </v>
   <v>       0.44963084       0.84979641       0.54662351 </v>
   <v>       0.48442374       0.92155466       0.54538570 </v>
   <v>       0.50905266       0.07138335       0.53249377 </v>
   <v>       0.54533594       0.14309576       0.53292626 </v>
   <v>       0.15430910       0.58352000       0.54665672 </v>
   <v>       0.08255963       0.54643537       0.54526019 </v>
   <v>       0.93307503       0.42090385       0.53257505 </v>
   <v>       0.86136217       0.38534245       0.53300871 </v>
   <v>       0.41994441       0.55333335       0.54622935 </v>
   <v>       0.45690219       0.51846984       0.54513537 </v>
  </varray>
 </structure>
</modeling>
