<?xml version="1.0" encoding="ISO-8859-1"?>
<modeling>
 <generator>
  <i name="program" type="string">vasp </i>
  <i name="version" type="string">5.4.4.18Apr17-6-g9f103f2a35  </i>
  <i name="subversion" type="string">(build Jun 07 2020 16:50:00) complex            parallel </i>
  <i name="platform" type="string">LinuxIFC </i>
  <i name="date" type="string">2023 03 05 </i>
  <i name="time" type="string">10:35:21 </i>
 </generator>
 <incar>
  <i type="string" name="SYSTEM">Simulation for cell shape cell volume r</i>
  <i type="int" name="ISTART">     1</i>
  <i type="string" name="PREC">high</i>
  <i type="string" name="ALGO">48</i>
  <i type="int" name="ICHARG">    11</i>
  <i type="int" name="NELM">   200</i>
  <i type="int" name="IBRION">    -1</i>
  <i name="EDIFF">      0.00001000</i>
  <i name="EDIFFG">     -0.01000000</i>
  <i type="int" name="NSW">     0</i>
  <i type="int" name="ISIF">     2</i>
  <i name="ENCUT">    500.00000000</i>
  <i name="POTIM">      0.30000000</i>
  <i type="string" name="LREAL">A</i>
  <i type="int" name="ISMEAR">     0</i>
  <i name="SIGMA">      0.01000000</i>
  <i type="int" name="NWRITE">     0</i>
  <i type="logical" name="LWAVE"> F  </i>
  <i type="logical" name="LCHARG"> F  </i>
  <v type="int" name="KPOINT_BSE">    -1     0     0     0</v>
  <i type="int" name="NELM">   200</i>
  <i type="string" name="GGA">PE</i>
 </incar>
 <structure name="primitive_cell" >
  <crystal>
   <varray name="basis" >
    <v>      14.60140100       0.00000000       0.00000000 </v>
    <v>      -7.30070050      12.64518420       0.00000000 </v>
    <v>       0.00000000       0.00000000      20.00000000 </v>
   </varray>
   <i name="volume">   3692.74810308 </i>
   <varray name="rec_basis" >
    <v>       0.06848658       0.03954074       0.00000000 </v>
    <v>       0.00000000       0.07908149       0.00000000 </v>
    <v>       0.00000000       0.00000000       0.05000000 </v>
   </varray>
  </crystal>
  <varray name="positions" >
   <v>       0.05667273      -0.47166363      -0.42594124 </v>
   <v>       0.11228514      -0.44385743      -0.36752369 </v>
   <v>       0.11223990      -0.44388005      -0.48779177 </v>
   <v>      -0.05667273       0.47166363      -0.42594124 </v>
   <v>       0.05617893      -0.47191054      -0.31189009 </v>
   <v>       0.05593012      -0.47203494       0.45306133 </v>
   <v>      -0.11228514       0.44385743      -0.36752369 </v>
   <v>      -0.11223990       0.44388005      -0.48779177 </v>
   <v>       0.23023245      -0.38488377      -0.48718838 </v>
   <v>      -0.05617893       0.47191054      -0.31189009 </v>
   <v>      -0.05593012       0.47203494       0.45306133 </v>
   <v>       0.09988015      -0.45005993      -0.26462849 </v>
   <v>       0.27884010      -0.44231980      -0.48739191 </v>
   <v>       0.27884010      -0.27884010      -0.48739191 </v>
   <v>       0.09812310      -0.45093845       0.40548348 </v>
   <v>      -0.09988015       0.45005993      -0.26462849 </v>
   <v>      -0.23023245       0.38488377      -0.48718838 </v>
   <v>      -0.09812310       0.45093845       0.40548348 </v>
   <v>       0.38488377      -0.38488377      -0.48718838 </v>
   <v>       0.38488377      -0.23023245      -0.48718838 </v>
   <v>      -0.27884010       0.27884010      -0.48739191 </v>
   <v>      -0.27884010       0.44231980      -0.48739191 </v>
   <v>       0.44231980      -0.27884010      -0.48739191 </v>
   <v>       0.44385743      -0.44385743      -0.36752369 </v>
   <v>       0.44385743      -0.11228514      -0.36752369 </v>
   <v>       0.44388005      -0.44388005      -0.48779177 </v>
   <v>       0.44388005      -0.11223990      -0.48779177 </v>
   <v>      -0.38488377       0.23023245      -0.48718838 </v>
   <v>      -0.38488377       0.38488377      -0.48718838 </v>
   <v>       0.47166363      -0.05667273      -0.42594124 </v>
   <v>       0.47166363      -0.47166363      -0.42594124 </v>
   <v>      -0.44231980       0.27884010      -0.48739191 </v>
   <v>       0.45005993      -0.45005993      -0.26462849 </v>
   <v>       0.45005993      -0.09988015      -0.26462849 </v>
   <v>       0.47191054      -0.47191054      -0.31189009 </v>
   <v>       0.47191054      -0.05617893      -0.31189009 </v>
   <v>       0.47203494      -0.47203494       0.45306133 </v>
   <v>       0.47203494      -0.05593012       0.45306133 </v>
   <v>       0.45093845      -0.45093845       0.40548348 </v>
   <v>       0.45093845      -0.09812310       0.40548348 </v>
   <v>      -0.44385743       0.11228514      -0.36752369 </v>
   <v>      -0.44385743       0.44385743      -0.36752369 </v>
   <v>      -0.44388005       0.11223990      -0.48779177 </v>
   <v>      -0.44388005       0.44388005      -0.48779177 </v>
   <v>      -0.47166363       0.47166363      -0.42594124 </v>
   <v>      -0.47166363       0.05667273      -0.42594124 </v>
   <v>      -0.45005993       0.09988015      -0.26462849 </v>
   <v>      -0.45005993       0.45005993      -0.26462849 </v>
   <v>      -0.47191054       0.05617893      -0.31189009 </v>
   <v>      -0.47191054       0.47191054      -0.31189009 </v>
   <v>      -0.45093845       0.09812310       0.40548348 </v>
   <v>      -0.45093845       0.45093845       0.40548348 </v>
   <v>      -0.47203494       0.47203494       0.45306133 </v>
   <v>      -0.47203494       0.05593012       0.45306133 </v>
  </varray>
 </structure>
 <varray name="primitive_index" >
  <v type="int" >        1 </v>
  <v type="int" >       43 </v>
  <v type="int" >        2 </v>
  <v type="int" >       24 </v>
  <v type="int" >        3 </v>
  <v type="int" >        4 </v>
  <v type="int" >       54 </v>
  <v type="int" >       23 </v>
  <v type="int" >        5 </v>
  <v type="int" >       25 </v>
  <v type="int" >       30 </v>
  <v type="int" >       31 </v>
  <v type="int" >       45 </v>
  <v type="int" >       44 </v>
  <v type="int" >       32 </v>
  <v type="int" >       39 </v>
  <v type="int" >       11 </v>
  <v type="int" >       42 </v>
  <v type="int" >        7 </v>
  <v type="int" >        6 </v>
  <v type="int" >       49 </v>
  <v type="int" >       50 </v>
  <v type="int" >       46 </v>
  <v type="int" >       47 </v>
  <v type="int" >       48 </v>
  <v type="int" >        8 </v>
  <v type="int" >        9 </v>
  <v type="int" >       10 </v>
  <v type="int" >       12 </v>
  <v type="int" >       20 </v>
  <v type="int" >       15 </v>
  <v type="int" >       51 </v>
  <v type="int" >       33 </v>
  <v type="int" >       34 </v>
  <v type="int" >       16 </v>
  <v type="int" >       21 </v>
  <v type="int" >       26 </v>
  <v type="int" >       28 </v>
  <v type="int" >       35 </v>
  <v type="int" >       36 </v>
  <v type="int" >       53 </v>
  <v type="int" >       52 </v>
  <v type="int" >       18 </v>
  <v type="int" >       13 </v>
  <v type="int" >       14 </v>
  <v type="int" >       19 </v>
  <v type="int" >       38 </v>
  <v type="int" >       37 </v>
  <v type="int" >       22 </v>
  <v type="int" >       17 </v>
  <v type="int" >       41 </v>
  <v type="int" >       40 </v>
  <v type="int" >       27 </v>
  <v type="int" >       29 </v>
 </varray>
 <kpoints>
  <generation param="listgenerated">
   <i name="divisions" type="int">      20 </i>
   <v>       0.00000000       0.00000000       0.00000000 </v>
   <v>       0.50000000       0.00000000       0.00000000 </v>
   <v>       0.33333333       0.33333333       0.00000000 </v>
   <v>       0.00000000       0.00000000       0.00000000 </v>
  </generation>
  <varray name="kpointlist" >
   <v>       0.00000000       0.00000000       0.00000000 </v>
   <v>       0.02631579       0.00000000       0.00000000 </v>
   <v>       0.05263158       0.00000000       0.00000000 </v>
   <v>       0.07894737       0.00000000       0.00000000 </v>
   <v>       0.10526316       0.00000000       0.00000000 </v>
   <v>       0.13157895       0.00000000       0.00000000 </v>
   <v>       0.15789474       0.00000000       0.00000000 </v>
   <v>       0.18421053       0.00000000       0.00000000 </v>
   <v>       0.21052632       0.00000000       0.00000000 </v>
   <v>       0.23684211       0.00000000       0.00000000 </v>
   <v>       0.26315789       0.00000000       0.00000000 </v>
   <v>       0.28947368       0.00000000       0.00000000 </v>
   <v>       0.31578947       0.00000000       0.00000000 </v>
   <v>       0.34210526       0.00000000       0.00000000 </v>
   <v>       0.36842105       0.00000000       0.00000000 </v>
   <v>       0.39473684       0.00000000       0.00000000 </v>
   <v>       0.42105263       0.00000000       0.00000000 </v>
   <v>       0.44736842       0.00000000       0.00000000 </v>
   <v>       0.47368421       0.00000000       0.00000000 </v>
   <v>       0.50000000       0.00000000       0.00000000 </v>
   <v>       0.50000000       0.00000000       0.00000000 </v>
   <v>       0.49122807       0.01754386       0.00000000 </v>
   <v>       0.48245614       0.03508772       0.00000000 </v>
   <v>       0.47368421       0.05263158       0.00000000 </v>
   <v>       0.46491228       0.07017544       0.00000000 </v>
   <v>       0.45614035       0.08771930       0.00000000 </v>
   <v>       0.44736842       0.10526316       0.00000000 </v>
   <v>       0.43859649       0.12280702       0.00000000 </v>
   <v>       0.42982456       0.14035088       0.00000000 </v>
   <v>       0.42105263       0.15789474       0.00000000 </v>
   <v>       0.41228070       0.17543860       0.00000000 </v>
   <v>       0.40350877       0.19298246       0.00000000 </v>
   <v>       0.39473684       0.21052632       0.00000000 </v>
   <v>       0.38596491       0.22807018       0.00000000 </v>
   <v>       0.37719298       0.24561404       0.00000000 </v>
   <v>       0.36842105       0.26315789       0.00000000 </v>
   <v>       0.35964912       0.28070175       0.00000000 </v>
   <v>       0.35087719       0.29824561       0.00000000 </v>
   <v>       0.34210526       0.31578947       0.00000000 </v>
   <v>       0.33333333       0.33333333       0.00000000 </v>
   <v>       0.33333333       0.33333333       0.00000000 </v>
   <v>       0.31578947       0.31578947       0.00000000 </v>
   <v>       0.29824561       0.29824561       0.00000000 </v>
   <v>       0.28070175       0.28070175       0.00000000 </v>
   <v>       0.26315789       0.26315789       0.00000000 </v>
   <v>       0.24561404       0.24561404       0.00000000 </v>
   <v>       0.22807018       0.22807018       0.00000000 </v>
   <v>       0.21052632       0.21052632       0.00000000 </v>
   <v>       0.19298246       0.19298246       0.00000000 </v>
   <v>       0.17543860       0.17543860       0.00000000 </v>
   <v>       0.15789474       0.15789474       0.00000000 </v>
   <v>       0.14035088       0.14035088       0.00000000 </v>
   <v>       0.12280702       0.12280702       0.00000000 </v>
   <v>       0.10526316       0.10526316       0.00000000 </v>
   <v>       0.08771930       0.08771930       0.00000000 </v>
   <v>       0.07017544       0.07017544       0.00000000 </v>
   <v>       0.05263158       0.05263158       0.00000000 </v>
   <v>       0.03508772       0.03508772       0.00000000 </v>
   <v>       0.01754386       0.01754386       0.00000000 </v>
   <v>       0.00000000       0.00000000       0.00000000 </v>
  </varray>
  <varray name="weights" >
   <v>       0.01666667 </v>
   <v>       0.01666667 </v>
   <v>       0.01666667 </v>
   <v>       0.01666667 </v>
   <v>       0.01666667 </v>
   <v>       0.01666667 </v>
   <v>       0.01666667 </v>
   <v>       0.01666667 </v>
   <v>       0.01666667 </v>
   <v>       0.01666667 </v>
   <v>       0.01666667 </v>
   <v>       0.01666667 </v>
   <v>       0.01666667 </v>
   <v>       0.01666667 </v>
   <v>       0.01666667 </v>
   <v>       0.01666667 </v>
   <v>       0.01666667 </v>
   <v>       0.01666667 </v>
   <v>       0.01666667 </v>
   <v>       0.01666667 </v>
   <v>       0.01666667 </v>
   <v>       0.01666667 </v>
   <v>       0.01666667 </v>
   <v>       0.01666667 </v>
   <v>       0.01666667 </v>
   <v>       0.01666667 </v>
   <v>       0.01666667 </v>
   <v>       0.01666667 </v>
   <v>       0.01666667 </v>
   <v>       0.01666667 </v>
   <v>       0.01666667 </v>
   <v>       0.01666667 </v>
   <v>       0.01666667 </v>
   <v>       0.01666667 </v>
   <v>       0.01666667 </v>
   <v>       0.01666667 </v>
   <v>       0.01666667 </v>
   <v>       0.01666667 </v>
   <v>       0.01666667 </v>
   <v>       0.01666667 </v>
   <v>       0.01666667 </v>
   <v>       0.01666667 </v>
   <v>       0.01666667 </v>
   <v>       0.01666667 </v>
   <v>       0.01666667 </v>
   <v>       0.01666667 </v>
   <v>       0.01666667 </v>
   <v>       0.01666667 </v>
   <v>       0.01666667 </v>
   <v>       0.01666667 </v>
   <v>       0.01666667 </v>
   <v>       0.01666667 </v>
   <v>       0.01666667 </v>
   <v>       0.01666667 </v>
   <v>       0.01666667 </v>
   <v>       0.01666667 </v>
   <v>       0.01666667 </v>
   <v>       0.01666667 </v>
   <v>       0.01666667 </v>
   <v>       0.01666667 </v>
  </varray>
 </kpoints>
 <parameters>
  <separator name="general" >
   <i type="string" name="SYSTEM">Simulation for cell shape cell volume r</i>
   <i type="logical" name="LCOMPAT"> F  </i>
  </separator>
  <separator name="electronic" >
   <i type="string" name="PREC">high</i>
   <i name="ENMAX">    500.00000000</i>
   <i name="ENAUG">    644.87300000</i>
   <i name="EDIFF">      0.00001000</i>
   <i type="int" name="IALGO">    38</i>
   <i type="int" name="IWAVPR">    10</i>
   <i type="int" name="NBANDS">   128</i>
   <i name="NELECT">    192.00000000</i>
   <i type="int" name="TURBO">     0</i>
   <i type="int" name="IRESTART">     0</i>
   <i type="int" name="NREBOOT">     0</i>
   <i type="int" name="NMIN">     0</i>
   <i name="EREF">      0.00000000</i>
   <separator name="electronic smearing" >
    <i type="int" name="ISMEAR">     0</i>
    <i name="SIGMA">      0.01000000</i>
    <i name="KSPACING">      0.50000000</i>
    <i type="logical" name="KGAMMA"> T  </i>
   </separator>
   <separator name="electronic projectors" >
    <i type="logical" name="LREAL"> T  </i>
    <v name="ROPT">     -0.00040000     -0.00040000     -0.00040000</v>
    <i type="int" name="LMAXPAW">  -100</i>
    <i type="int" name="LMAXMIX">     2</i>
    <i type="logical" name="NLSPLINE"> F  </i>
   </separator>
   <separator name="electronic startup" >
    <i type="int" name="ISTART">     1</i>
    <i type="int" name="ICHARG">    11</i>
    <i type="int" name="INIWAV">     1</i>
   </separator>
   <separator name="electronic spin" >
    <i type="int" name="ISPIN">     1</i>
    <i type="logical" name="LNONCOLLINEAR"> F  </i>
    <v name="MAGMOM">      1.00000000      1.00000000      1.00000000      1.00000000      1.00000000      1.00000000      1.00000000      1.00000000      1.00000000      1.00000000      1.00000000      1.00000000      1.00000000      1.00000000      1.00000000      1.00000000      1.00000000      1.00000000      1.00000000      1.00000000
      1.00000000      1.00000000      1.00000000      1.00000000      1.00000000      1.00000000      1.00000000      1.00000000      1.00000000      1.00000000      1.00000000      1.00000000      1.00000000      1.00000000      1.00000000      1.00000000      1.00000000      1.00000000      1.00000000      1.00000000
      1.00000000      1.00000000      1.00000000      1.00000000      1.00000000      1.00000000      1.00000000      1.00000000      1.00000000      1.00000000      1.00000000      1.00000000      1.00000000      1.00000000</v>
    <i name="NUPDOWN">     -1.00000000</i>
    <i type="logical" name="LSORBIT"> F  </i>
    <v name="SAXIS">      0.00000000      0.00000000      1.00000000</v>
    <i type="logical" name="LSPIRAL"> F  </i>
    <v name="QSPIRAL">      0.00000000      0.00000000      0.00000000</v>
    <i type="logical" name="LZEROZ"> F  </i>
   </separator>
   <separator name="electronic exchange-correlation" >
    <i type="logical" name="LASPH"> F  </i>
    <i type="logical" name="LMETAGGA"> F  </i>
   </separator>
   <separator name="electronic convergence" >
    <i type="int" name="NELM">   200</i>
    <i type="int" name="NELMDL">     0</i>
    <i type="int" name="NELMIN">     2</i>
    <i name="ENINI">    500.00000000</i>
    <separator name="electronic convergence detail" >
     <i type="logical" name="LDIAG"> T  </i>
     <i type="logical" name="LSUBROT"> F  </i>
     <i name="WEIMIN">      0.00000000</i>
     <i name="EBREAK">      0.00000002</i>
     <i name="DEPER">      0.30000000</i>
     <i type="int" name="NRMM">     4</i>
     <i name="TIME">      0.40000000</i>
    </separator>
   </separator>
   <separator name="electronic mixer" >
    <i name="AMIX">      0.40000000</i>
    <i name="BMIX">      1.00000000</i>
    <i name="AMIN">      0.10000000</i>
    <i name="AMIX_MAG">      1.60000000</i>
    <i name="BMIX_MAG">      1.00000000</i>
    <separator name="electronic mixer details" >
     <i type="int" name="IMIX">     4</i>
     <i type="logical" name="MIXFIRST"> F  </i>
     <i type="int" name="MAXMIX">   -45</i>
     <i name="WC">    100.00000000</i>
     <i type="int" name="INIMIX">     1</i>
     <i type="int" name="MIXPRE">     1</i>
     <i type="int" name="MREMOVE">     5</i>
    </separator>
   </separator>
   <separator name="electronic dipolcorrection" >
    <i type="logical" name="LDIPOL"> F  </i>
    <i type="logical" name="LMONO"> F  </i>
    <i type="int" name="IDIPOL">     0</i>
    <i name="EPSILON">      1.00000000</i>
    <v name="DIPOL">   -100.00000000   -100.00000000   -100.00000000</v>
    <i name="EFIELD">      0.00000000</i>
   </separator>
  </separator>
  <separator name="grids" >
   <i type="int" name="NGX">   108</i>
   <i type="int" name="NGY">   108</i>
   <i type="int" name="NGZ">   150</i>
   <i type="int" name="NGXF">   162</i>
   <i type="int" name="NGYF">   162</i>
   <i type="int" name="NGZF">   224</i>
   <i type="logical" name="ADDGRID"> F  </i>
  </separator>
  <separator name="ionic" >
   <i type="int" name="NSW">     0</i>
   <i type="int" name="IBRION">    -1</i>
   <i type="int" name="MDALGO">     0</i>
   <i type="int" name="ISIF">     2</i>
   <i name="PSTRESS">      0.00000000</i>
   <i name="EDIFFG">     -0.01000000</i>
   <i type="int" name="NFREE">     0</i>
   <i name="POTIM">      0.30000000</i>
   <i name="SMASS">     -3.00000000</i>
   <i name="SCALEE">      1.00000000</i>
  </separator>
  <separator name="ionic md" >
   <i name="TEBEG">      0.00010000</i>
   <i name="TEEND">      0.00010000</i>
   <i type="int" name="NBLOCK">     1</i>
   <i type="int" name="KBLOCK">     1</i>
   <i type="int" name="NPACO">   256</i>
   <i name="APACO">     16.00000000</i>
  </separator>
  <separator name="symmetry" >
   <i type="int" name="ISYM">     2</i>
   <i name="SYMPREC">      0.00001000</i>
  </separator>
  <separator name="dos" >
   <i type="int" name="LORBIT">     0</i>
   <v name="RWIGS">     -1.00000000     -1.00000000     -1.00000000</v>
   <i type="int" name="NEDOS">   301</i>
   <i name="EMIN">     10.00000000</i>
   <i name="EMAX">    -10.00000000</i>
   <i name="EFERMI">      0.00000000</i>
  </separator>
  <separator name="writing" >
   <i type="int" name="NWRITE">     0</i>
   <i type="logical" name="LWAVE"> F  </i>
   <i type="logical" name="LDOWNSAMPLE"> F  </i>
   <i type="logical" name="LCHARG"> F  </i>
   <i type="logical" name="LPARD"> F  </i>
   <i type="logical" name="LVTOT"> F  </i>
   <i type="logical" name="LVHAR"> F  </i>
   <i type="logical" name="LELF"> F  </i>
   <i type="logical" name="LOPTICS"> F  </i>
   <v name="STM">      0.00000000      0.00000000      0.00000000      0.00000000      0.00000000      0.00000000      0.00000000</v>
  </separator>
  <separator name="performance" >
   <i type="int" name="NPAR">    16</i>
   <i type="int" name="NSIM">     4</i>
   <i type="int" name="NBLK">    -1</i>
   <i type="logical" name="LPLANE"> T  </i>
   <i type="logical" name="LSCALAPACK"> T  </i>
   <i type="logical" name="LSCAAWARE"> F  </i>
   <i type="logical" name="LSCALU"> F  </i>
   <i type="logical" name="LASYNC"> F  </i>
   <i type="logical" name="LORBITALREAL"> F  </i>
  </separator>
  <separator name="miscellaneous" >
   <i type="int" name="IDIOT">     3</i>
   <i type="int" name="ISPECIAL">     0</i>
   <i type="logical" name="LMUSIC"> F  </i>
   <v name="POMASS">     12.01100000      1.00000000     14.00100000</v>
   <v name="DARWINR">      0.00000000      0.00000000      0.00000000</v>
   <v name="DARWINV">      1.00000000      1.00000000      1.00000000</v>
   <i type="logical" name="LCORR"> T  </i>
  </separator>
  <i type="logical" name="GGA_COMPAT"> T  </i>
  <i type="logical" name="LBERRY"> F  </i>
  <i type="int" name="ICORELEVEL">     0</i>
  <i type="logical" name="LDAU"> F  </i>
  <i type="int" name="I_CONSTRAINED_M">     0</i>
  <separator name="electronic exchange-correlation" >
   <i type="string" name="GGA">PE</i>
   <i type="int" name="VOSKOWN">     0</i>
   <i type="logical" name="LHFCALC"> F  </i>
   <i type="string" name="PRECFOCK"></i>
   <i type="logical" name="LSYMGRAD"> F  </i>
   <i type="logical" name="LHFONE"> F  </i>
   <i type="logical" name="LRHFCALC"> F  </i>
   <i type="logical" name="LTHOMAS"> F  </i>
   <i type="logical" name="LMODELHF"> F  </i>
   <i name="ENCUT4O">     -1.00000000</i>
   <i type="int" name="EXXOEP">     0</i>
   <i type="int" name="FOURORBIT">     0</i>
   <i name="AEXX">      0.00000000</i>
   <i name="HFALPHA">      0.00000000</i>
   <i name="MCALPHA">      0.00000000</i>
   <i name="ALDAX">      1.00000000</i>
   <i name="AGGAX">      1.00000000</i>
   <i name="ALDAC">      1.00000000</i>
   <i name="AGGAC">      1.00000000</i>
   <i type="int" name="NKREDX">     1</i>
   <i type="int" name="NKREDY">     1</i>
   <i type="int" name="NKREDZ">     1</i>
   <i type="logical" name="SHIFTRED"> F  </i>
   <i type="logical" name="ODDONLY"> F  </i>
   <i type="logical" name="EVENONLY"> F  </i>
   <i type="int" name="LMAXFOCK">     0</i>
   <i type="int" name="NMAXFOCKAE">     0</i>
   <i type="logical" name="LFOCKAEDFT"> F  </i>
   <i name="HFSCREEN">      0.00000000</i>
   <i name="HFSCREENC">      0.00000000</i>
   <i type="int" name="NBANDSGWLOW">     0</i>
  </separator>
  <separator name="vdW DFT" >
   <i type="logical" name="LUSE_VDW"> F  </i>
   <i name="Zab_VDW">     -0.84910000</i>
   <i name="PARAM1">      0.12340000</i>
   <i name="PARAM2">      1.00000000</i>
   <i name="PARAM3">      0.00000000</i>
  </separator>
  <separator name="model GW" >
   <i type="int" name="MODEL_GW">     0</i>
   <i name="MODEL_EPS0">     41.03053448</i>
   <i name="MODEL_ALPHA">      1.00000000</i>
  </separator>
  <separator name="linear response parameters" >
   <i type="logical" name="LEPSILON"> F  </i>
   <i type="logical" name="LRPA"> F  </i>
   <i type="logical" name="LNABLA"> F  </i>
   <i type="logical" name="LVEL"> F  </i>
   <i type="int" name="KINTER">     0</i>
   <i name="CSHIFT">      0.10000000</i>
   <i name="OMEGAMAX">     -1.00000000</i>
   <i name="DEG_THRESHOLD">      0.00200000</i>
   <i name="RTIME">     -0.10000000</i>
   <i name="WPLASMAI">      0.00000000</i>
   <v name="DFIELD">      0.00000000      0.00000000      0.00000000</v>
   <v name="WPLASMA">      0.00000000      0.00000000      0.00000000      0.00000000      0.00000000      0.00000000      0.00000000      0.00000000      0.00000000</v>
  </separator>
  <separator name="orbital magnetization" >
   <i type="logical" name="NUCIND"> F  </i>
   <v name="MAGPOS">      0.00000000      0.00000000      0.00000000</v>
   <i type="logical" name="LNICSALL"> T  </i>
   <i type="logical" name="ORBITALMAG"> F  </i>
   <i type="logical" name="LMAGBLOCH"> F  </i>
   <i type="logical" name="LCHIMAG"> F  </i>
   <i type="logical" name="LGAUGE"> T  </i>
   <i type="int" name="MAGATOM">     0</i>
   <v name="MAGDIPOL">      0.00000000      0.00000000      0.00000000</v>
   <v name="AVECCONST">      0.00000000      0.00000000      0.00000000</v>
  </separator>
  <separator name="response functions" >
   <i type="logical" name="LADDER"> F  </i>
   <i type="logical" name="LRPAFORCE"> F  </i>
   <i type="logical" name="LFXC"> F  </i>
   <i type="logical" name="LHARTREE"> T  </i>
   <i type="int" name="IBSE">     0</i>
   <v type="int" name="KPOINT">    -1     0     0     0</v>
   <i type="logical" name="LTCTE"> F  </i>
   <i type="logical" name="LTETE"> F  </i>
   <i type="logical" name="LTRIPLET"> F  </i>
   <i type="logical" name="LFXCEPS"> F  </i>
   <i type="logical" name="LFXHEG"> F  </i>
   <i type="int" name="NATURALO">     2</i>
   <i type="logical" name="L2ORDER"> F  </i>
   <i type="logical" name="LMP2LT"> F  </i>
   <i type="logical" name="LUSEW"> F  </i>
   <i name="ENCUTGW">     -2.00000000</i>
   <i name="ENCUTGWSOFT">     -2.00000000</i>
   <i name="ENCUTLF">     -1.00000000</i>
   <i type="int" name="LMAXMP2">    -1</i>
   <i name="SCISSOR">      0.00000000</i>
   <i type="int" name="NOMEGA">     0</i>
   <i type="int" name="NOMEGAR">     0</i>
   <i type="int" name="NBANDSGW">    -1</i>
   <i type="int" name="NBANDSO">    -1</i>
   <i type="int" name="NBANDSV">    -1</i>
   <i type="int" name="NELM">   200</i>
   <i type="int" name="NELMHF">     1</i>
   <i type="int" name="DIM">     3</i>
   <i type="int" name="ANTIRES">     0</i>
   <i name="OMEGAMAX">    -30.00000000</i>
   <i name="OMEGAMIN">    -30.00000000</i>
   <i name="OMEGATL">   -200.00000000</i>
   <i type="int" name="OMEGAGRID">   140</i>
   <i name="CSHIFT">     -0.10000000</i>
   <i type="logical" name="SELFENERGY"> F  </i>
   <i type="logical" name="LSPECTRAL"> F  </i>
   <i type="logical" name="LSPECTRALGW"> F  </i>
   <i type="logical" name="LSINGLES"> F  </i>
   <i type="logical" name="LFERMIGW"> F  </i>
   <i type="logical" name="ODDONLYGW"> F  </i>
   <i type="logical" name="EVENONLYGW"> F  </i>
   <i type="int" name="NKREDLFX">     1</i>
   <i type="int" name="NKREDLFY">     1</i>
   <i type="int" name="NKREDLFZ">     1</i>
   <i type="int" name="MAXMEM">  2800</i>
   <i type="int" name="TELESCOPE">     0</i>
   <i type="int" name="TAUPAR">     1</i>
   <i type="int" name="OMEGAPAR">    -1</i>
   <i name="LAMBDA">      1.00000000</i>
  </separator>
  <separator name="External order field" >
   <i name="OFIELD_KAPPA">      0.00000000</i>
   <v name="OFIELD_K">      0.00000000      0.00000000      0.00000000</v>
   <i name="OFIELD_Q6_NEAR">      0.00000000</i>
   <i name="OFIELD_Q6_FAR">      0.00000000</i>
   <i name="OFIELD_A">      0.00000000</i>
  </separator>
  <separator name="solvation model" >
   <i type="logical" name="LSOL"> F  </i>
  </separator>
 </parameters>
 <atominfo>
  <atoms>      54 </atoms>
  <types>       3 </types>
  <array name="atoms" >
   <dimension dim="1">ion</dimension>
   <field type="string">element</field>
   <field type="int">atomtype</field>
   <set>
    <rc><c>C </c><c>   1</c></rc>
    <rc><c>C </c><c>   1</c></rc>
    <rc><c>C </c><c>   1</c></rc>
    <rc><c>C </c><c>   1</c></rc>
    <rc><c>C </c><c>   1</c></rc>
    <rc><c>C </c><c>   1</c></rc>
    <rc><c>C </c><c>   1</c></rc>
    <rc><c>C </c><c>   1</c></rc>
    <rc><c>C </c><c>   1</c></rc>
    <rc><c>C </c><c>   1</c></rc>
    <rc><c>C </c><c>   1</c></rc>
    <rc><c>C </c><c>   1</c></rc>
    <rc><c>C </c><c>   1</c></rc>
    <rc><c>C </c><c>   1</c></rc>
    <rc><c>C </c><c>   1</c></rc>
    <rc><c>C </c><c>   1</c></rc>
    <rc><c>C </c><c>   1</c></rc>
    <rc><c>C </c><c>   1</c></rc>
    <rc><c>C </c><c>   1</c></rc>
    <rc><c>C </c><c>   1</c></rc>
    <rc><c>C </c><c>   1</c></rc>
    <rc><c>C </c><c>   1</c></rc>
    <rc><c>C </c><c>   1</c></rc>
    <rc><c>C </c><c>   1</c></rc>
    <rc><c>C </c><c>   1</c></rc>
    <rc><c>C </c><c>   1</c></rc>
    <rc><c>C </c><c>   1</c></rc>
    <rc><c>C </c><c>   1</c></rc>
    <rc><c>C </c><c>   1</c></rc>
    <rc><c>C </c><c>   1</c></rc>
    <rc><c>H </c><c>   2</c></rc>
    <rc><c>H </c><c>   2</c></rc>
    <rc><c>H </c><c>   2</c></rc>
    <rc><c>H </c><c>   2</c></rc>
    <rc><c>H </c><c>   2</c></rc>
    <rc><c>H </c><c>   2</c></rc>
    <rc><c>H </c><c>   2</c></rc>
    <rc><c>H </c><c>   2</c></rc>
    <rc><c>H </c><c>   2</c></rc>
    <rc><c>H </c><c>   2</c></rc>
    <rc><c>H </c><c>   2</c></rc>
    <rc><c>H </c><c>   2</c></rc>
    <rc><c>N </c><c>   3</c></rc>
    <rc><c>N </c><c>   3</c></rc>
    <rc><c>N </c><c>   3</c></rc>
    <rc><c>N </c><c>   3</c></rc>
    <rc><c>N </c><c>   3</c></rc>
    <rc><c>N </c><c>   3</c></rc>
    <rc><c>N </c><c>   3</c></rc>
    <rc><c>N </c><c>   3</c></rc>
    <rc><c>N </c><c>   3</c></rc>
    <rc><c>N </c><c>   3</c></rc>
    <rc><c>N </c><c>   3</c></rc>
    <rc><c>N </c><c>   3</c></rc>
   </set>
  </array>
  <array name="atomtypes" >
   <dimension dim="1">type</dimension>
   <field type="int">atomspertype</field>
   <field type="string">element</field>
   <field>mass</field>
   <field>valence</field>
   <field type="string">pseudopotential</field>
   <set>
    <rc><c>  30</c><c>C </c><c>     12.01100000</c><c>      4.00000000</c><c>  PAW_PBE C 08Apr2002                   </c></rc>
    <rc><c>  12</c><c>H </c><c>      1.00000000</c><c>      1.00000000</c><c>  PAW_PBE H 15Jun2001                   </c></rc>
    <rc><c>  12</c><c>N </c><c>     14.00100000</c><c>      5.00000000</c><c>  PAW_PBE N 08Apr2002                   </c></rc>
   </set>
  </array>
 </atominfo>
 <structure name="initialpos" >
  <crystal>
   <varray name="basis" >
    <v>      14.60140100       0.00000000       0.00000000 </v>
    <v>      -7.30070050      12.64518420       0.00000000 </v>
    <v>       0.00000000       0.00000000      20.00000000 </v>
   </varray>
   <i name="volume">   3692.74810308 </i>
   <varray name="rec_basis" >
    <v>       0.06848658       0.03954074       0.00000000 </v>
    <v>       0.00000000       0.07908149       0.00000000 </v>
    <v>       0.00000000       0.00000000       0.05000000 </v>
   </varray>
  </crystal>
  <varray name="positions" >
   <v>       0.05667273       0.52833637       0.57405876 </v>
   <v>       0.11223990       0.55611995       0.51220823 </v>
   <v>       0.05617893       0.52808946       0.68810991 </v>
   <v>       0.05593012       0.52796506       0.45306133 </v>
   <v>       0.23023245       0.61511623       0.51281162 </v>
   <v>       0.38488377       0.76976755       0.51281162 </v>
   <v>       0.38488377       0.61511623       0.51281162 </v>
   <v>       0.44388005       0.55611995       0.51220823 </v>
   <v>       0.44388005       0.88776010       0.51220823 </v>
   <v>       0.61511623       0.23023245       0.51281162 </v>
   <v>       0.76976755       0.38488377       0.51281162 </v>
   <v>       0.61511623       0.38488377       0.51281162 </v>
   <v>       0.55611995       0.44388005       0.51220823 </v>
   <v>       0.52833637       0.47166363       0.57405876 </v>
   <v>       0.47166363       0.52833637       0.57405876 </v>
   <v>       0.47191054       0.52808946       0.68810991 </v>
   <v>       0.52808946       0.47191054       0.68810991 </v>
   <v>       0.55611995       0.11223990       0.51220823 </v>
   <v>       0.52833637       0.05667273       0.57405876 </v>
   <v>       0.47166363       0.94332727       0.57405876 </v>
   <v>       0.47191054       0.94382107       0.68810991 </v>
   <v>       0.52808946       0.05617893       0.68810991 </v>
   <v>       0.88776010       0.44388005       0.51220823 </v>
   <v>       0.94332727       0.47166363       0.57405876 </v>
   <v>       0.94382107       0.47191054       0.68810991 </v>
   <v>       0.47203494       0.52796506       0.45306133 </v>
   <v>       0.52796506       0.47203494       0.45306133 </v>
   <v>       0.47203494       0.94406988       0.45306133 </v>
   <v>       0.52796506       0.05593012       0.45306133 </v>
   <v>       0.94406988       0.47203494       0.45306133 </v>
   <v>       0.09988015       0.54994007       0.73537151 </v>
   <v>       0.09812310       0.54906155       0.40548348 </v>
   <v>       0.45005993       0.54994007       0.73537151 </v>
   <v>       0.45005993       0.90011985       0.73537151 </v>
   <v>       0.45093845       0.54906155       0.40548348 </v>
   <v>       0.45093845       0.90187690       0.40548348 </v>
   <v>       0.54994007       0.45005993       0.73537151 </v>
   <v>       0.54994007       0.09988015       0.73537151 </v>
   <v>       0.90011985       0.45005993       0.73537151 </v>
   <v>       0.54906155       0.45093845       0.40548348 </v>
   <v>       0.54906155       0.09812310       0.40548348 </v>
   <v>       0.90187690       0.45093845       0.40548348 </v>
   <v>       0.11228514       0.55614257       0.63247631 </v>
   <v>       0.27884010       0.72115990       0.51260809 </v>
   <v>       0.27884010       0.55768020       0.51260809 </v>
   <v>       0.44231980       0.72115990       0.51260809 </v>
   <v>       0.44385743       0.55614257       0.63247631 </v>
   <v>       0.44385743       0.88771486       0.63247631 </v>
   <v>       0.72115990       0.27884010       0.51260809 </v>
   <v>       0.72115990       0.44231980       0.51260809 </v>
   <v>       0.55768020       0.27884010       0.51260809 </v>
   <v>       0.55614257       0.44385743       0.63247631 </v>
   <v>       0.55614257       0.11228514       0.63247631 </v>
   <v>       0.88771486       0.44385743       0.63247631 </v>
  </varray>
 </structure>
 <calculation>
  <scstep>
   <time name="dav">   31.48   31.72</time>
   <time name="total">   31.57   31.81</time>
   <energy>
    <i name="alphaZ">     46.99848018 </i>
    <i name="ewald">  20871.81362779 </i>
    <i name="hartreedc"> -27336.03242082 </i>
    <i name="XCdc">    687.09076452 </i>
    <i name="pawpsdc">  18725.00689346 </i>
    <i name="pawaedc"> -18762.31264056 </i>
    <i name="eentropy">     -0.00000000 </i>
    <i name="bandstr">  -2380.43832290 </i>
    <i name="atom">   7738.70800225 </i>
    <i name="e_fr_energy">   -409.16561608 </i>
    <i name="e_wo_entrp">   -409.16561608 </i>
    <i name="e_0_energy">   -409.16561608 </i>
   </energy>
  </scstep>
  <scstep>
   <time name="dav">   34.10   34.35</time>
   <time name="total">   34.10   34.35</time>
   <energy>
    <i name="e_fr_energy">   -409.61664371 </i>
    <i name="e_wo_entrp">   -409.61664371 </i>
    <i name="e_0_energy">   -409.61664371 </i>
   </energy>
  </scstep>
  <scstep>
   <time name="dav">   38.37   38.65</time>
   <time name="total">   38.37   38.66</time>
   <energy>
    <i name="e_fr_energy">   -409.62646291 </i>
    <i name="e_wo_entrp">   -409.62646291 </i>
    <i name="e_0_energy">   -409.62646291 </i>
   </energy>
  </scstep>
  <scstep>
   <time name="dav">   33.83   34.08</time>
   <time name="total">   33.84   34.09</time>
   <energy>
    <i name="e_fr_energy">   -409.62664288 </i>
    <i name="e_wo_entrp">   -409.62664288 </i>
    <i name="e_0_energy">   -409.62664288 </i>
   </energy>
  </scstep>
  <scstep>
   <time name="dav">   29.69   29.90</time>
   <time name="total">   29.69   29.91</time>
   <energy>
    <i name="alphaZ">     46.99848018 </i>
    <i name="ewald">  20871.81362779 </i>
    <i name="hartreedc"> -27336.03242082 </i>
    <i name="XCdc">    687.09076452 </i>
    <i name="pawpsdc">  18725.00689346 </i>
    <i name="pawaedc"> -18762.31264056 </i>
    <i name="eentropy">     -0.00000000 </i>
    <i name="bandstr">  -2380.89935647 </i>
    <i name="atom">   7738.70800225 </i>
    <i name="e_fr_energy">   -409.62664965 </i>
    <i name="e_wo_entrp">   -409.62664965 </i>
    <i name="e_0_energy">   -409.62664965 </i>
   </energy>
  </scstep>
  <structure>
   <crystal>
    <varray name="basis" >
     <v>      14.60140100       0.00000000       0.00000000 </v>
     <v>      -7.30070050      12.64518420       0.00000000 </v>
     <v>       0.00000000       0.00000000      20.00000000 </v>
    </varray>
    <i name="volume">   3692.74810308 </i>
    <varray name="rec_basis" >
     <v>       0.06848658       0.03954074       0.00000000 </v>
     <v>       0.00000000       0.07908149       0.00000000 </v>
     <v>       0.00000000       0.00000000       0.05000000 </v>
    </varray>
   </crystal>
   <varray name="positions" >
    <v>       0.05667273       0.52833637       0.57405876 </v>
    <v>       0.11223990       0.55611995       0.51220823 </v>
    <v>       0.05617893       0.52808946       0.68810991 </v>
    <v>       0.05593012       0.52796506       0.45306133 </v>
    <v>       0.23023245       0.61511623       0.51281162 </v>
    <v>       0.38488377       0.76976755       0.51281162 </v>
    <v>       0.38488377       0.61511623       0.51281162 </v>
    <v>       0.44388005       0.55611995       0.51220823 </v>
    <v>       0.44388005       0.88776010       0.51220823 </v>
    <v>       0.61511623       0.23023245       0.51281162 </v>
    <v>       0.76976755       0.38488377       0.51281162 </v>
    <v>       0.61511623       0.38488377       0.51281162 </v>
    <v>       0.55611995       0.44388005       0.51220823 </v>
    <v>       0.52833637       0.47166363       0.57405876 </v>
    <v>       0.47166363       0.52833637       0.57405876 </v>
    <v>       0.47191054       0.52808946       0.68810991 </v>
    <v>       0.52808946       0.47191054       0.68810991 </v>
    <v>       0.55611995       0.11223990       0.51220823 </v>
    <v>       0.52833637       0.05667273       0.57405876 </v>
    <v>       0.47166363       0.94332727       0.57405876 </v>
    <v>       0.47191054       0.94382107       0.68810991 </v>
    <v>       0.52808946       0.05617893       0.68810991 </v>
    <v>       0.88776010       0.44388005       0.51220823 </v>
    <v>       0.94332727       0.47166363       0.57405876 </v>
    <v>       0.94382107       0.47191054       0.68810991 </v>
    <v>       0.47203494       0.52796506       0.45306133 </v>
    <v>       0.52796506       0.47203494       0.45306133 </v>
    <v>       0.47203494       0.94406988       0.45306133 </v>
    <v>       0.52796506       0.05593012       0.45306133 </v>
    <v>       0.94406988       0.47203494       0.45306133 </v>
    <v>       0.09988015       0.54994007       0.73537151 </v>
    <v>       0.09812310       0.54906155       0.40548348 </v>
    <v>       0.45005993       0.54994007       0.73537151 </v>
    <v>       0.45005993       0.90011985       0.73537151 </v>
    <v>       0.45093845       0.54906155       0.40548348 </v>
    <v>       0.45093845       0.90187690       0.40548348 </v>
    <v>       0.54994007       0.45005993       0.73537151 </v>
    <v>       0.54994007       0.09988015       0.73537151 </v>
    <v>       0.90011985       0.45005993       0.73537151 </v>
    <v>       0.54906155       0.45093845       0.40548348 </v>
    <v>       0.54906155       0.09812310       0.40548348 </v>
    <v>       0.90187690       0.45093845       0.40548348 </v>
    <v>       0.11228514       0.55614257       0.63247631 </v>
    <v>       0.27884010       0.72115990       0.51260809 </v>
    <v>       0.27884010       0.55768020       0.51260809 </v>
    <v>       0.44231980       0.72115990       0.51260809 </v>
    <v>       0.44385743       0.55614257       0.63247631 </v>
    <v>       0.44385743       0.88771486       0.63247631 </v>
    <v>       0.72115990       0.27884010       0.51260809 </v>
    <v>       0.72115990       0.44231980       0.51260809 </v>
    <v>       0.55768020       0.27884010       0.51260809 </v>
    <v>       0.55614257       0.44385743       0.63247631 </v>
    <v>       0.55614257       0.11228514       0.63247631 </v>
    <v>       0.88771486       0.44385743       0.63247631 </v>
   </varray>
  </structure>
  <varray name="forces" >
   <v>      -0.00086744      -0.00050082      -0.00419435 </v>
   <v>      -0.00240838      -0.00139048       0.00204966 </v>
   <v>       0.00482047       0.00278310       0.00736284 </v>
   <v>      -0.00021871      -0.00012627       0.00408373 </v>
   <v>       0.00304010       0.00175520       0.00146138 </v>
   <v>       0.00000000      -0.00351041       0.00146138 </v>
   <v>      -0.00304010       0.00175520       0.00146138 </v>
   <v>       0.00240838      -0.00139048       0.00204966 </v>
   <v>      -0.00000000       0.00278096       0.00204966 </v>
   <v>      -0.00000000       0.00351041       0.00146138 </v>
   <v>      -0.00304010      -0.00175520       0.00146138 </v>
   <v>       0.00304010      -0.00175520       0.00146138 </v>
   <v>      -0.00240838       0.00139048       0.00204966 </v>
   <v>      -0.00086744       0.00050082      -0.00419435 </v>
   <v>       0.00086744      -0.00050082      -0.00419435 </v>
   <v>      -0.00482047       0.00278310       0.00736284 </v>
   <v>       0.00482047      -0.00278310       0.00736284 </v>
   <v>       0.00000000      -0.00278096       0.00204966 </v>
   <v>       0.00000000      -0.00100164      -0.00419435 </v>
   <v>      -0.00000000       0.00100164      -0.00419435 </v>
   <v>       0.00000000      -0.00556620       0.00736284 </v>
   <v>      -0.00000000       0.00556620       0.00736284 </v>
   <v>       0.00240838       0.00139048       0.00204966 </v>
   <v>       0.00086744       0.00050082      -0.00419435 </v>
   <v>      -0.00482047      -0.00278310       0.00736284 </v>
   <v>       0.00021871      -0.00012627       0.00408373 </v>
   <v>      -0.00021871       0.00012627       0.00408373 </v>
   <v>      -0.00000000       0.00025254       0.00408373 </v>
   <v>       0.00000000      -0.00025254       0.00408373 </v>
   <v>       0.00021871       0.00012627       0.00408373 </v>
   <v>      -0.00378351      -0.00218441      -0.00784119 </v>
   <v>      -0.00107090      -0.00061829       0.00102573 </v>
   <v>       0.00378351      -0.00218441      -0.00784119 </v>
   <v>      -0.00000000       0.00436882      -0.00784119 </v>
   <v>       0.00107090      -0.00061829       0.00102573 </v>
   <v>      -0.00000000       0.00123657       0.00102573 </v>
   <v>      -0.00378351       0.00218441      -0.00784119 </v>
   <v>       0.00000000      -0.00436882      -0.00784119 </v>
   <v>       0.00378351       0.00218441      -0.00784119 </v>
   <v>      -0.00107090       0.00061829       0.00102573 </v>
   <v>       0.00000000      -0.00123657       0.00102573 </v>
   <v>       0.00107090       0.00061829       0.00102573 </v>
   <v>       0.00345119       0.00199255      -0.00527010 </v>
   <v>      -0.00136406       0.00078754       0.00132230 </v>
   <v>       0.00000000      -0.00157508       0.00132230 </v>
   <v>       0.00136406       0.00078754       0.00132230 </v>
   <v>      -0.00345119       0.00199255      -0.00527010 </v>
   <v>       0.00000000      -0.00398509      -0.00527010 </v>
   <v>       0.00136406      -0.00078754       0.00132230 </v>
   <v>      -0.00000000       0.00157508       0.00132230 </v>
   <v>      -0.00136406      -0.00078754       0.00132230 </v>
   <v>       0.00345119      -0.00199255      -0.00527010 </v>
   <v>      -0.00000000       0.00398509      -0.00527010 </v>
   <v>      -0.00345119      -0.00199255      -0.00527010 </v>
  </varray>
  <varray name="stress" >
   <v>       0.01554744      -0.00000000       0.00000000 </v>
   <v>      -0.00000000       0.01554744       0.00000000 </v>
   <v>       0.00000000       0.00000000      -0.39282087 </v>
  </varray>
  <energy>
   <i name="e_fr_energy">   -410.82377851 </i>
   <i name="e_wo_entrp">   -410.82377851 </i>
   <i name="e_0_energy">     -0.00000000 </i>
  </energy>
  <time name="totalsc">  190.77  192.24</time>
  <eigenvalues>
   <array>
    <dimension dim="1">band</dimension>
    <dimension dim="2">kpoint</dimension>
    <dimension dim="3">spin</dimension>
    <field>eigene</field>
    <field>occ</field>
    <set>
     <set comment="spin 1">
      <set comment="kpoint 1">
       <r>  -24.8796    1.0000 </r>
       <r>  -24.8649    1.0000 </r>
       <r>  -23.8007    1.0000 </r>
       <r>  -23.8005    1.0000 </r>
       <r>  -23.7658    1.0000 </r>
       <r>  -22.1188    1.0000 </r>
       <r>  -22.1186    1.0000 </r>
       <r>  -21.9658    1.0000 </r>
       <r>  -21.9066    1.0000 </r>
       <r>  -21.9066    1.0000 </r>
       <r>  -21.6996    1.0000 </r>
       <r>  -21.6995    1.0000 </r>
       <r>  -20.6731    1.0000 </r>
       <r>  -20.5847    1.0000 </r>
       <r>  -20.5847    1.0000 </r>
       <r>  -18.7145    1.0000 </r>
       <r>  -18.7144    1.0000 </r>
       <r>  -18.4123    1.0000 </r>
       <r>  -18.2542    1.0000 </r>
       <r>  -18.2515    1.0000 </r>
       <r>  -18.2515    1.0000 </r>
       <r>  -16.9028    1.0000 </r>
       <r>  -16.9028    1.0000 </r>
       <r>  -15.9137    1.0000 </r>
       <r>  -15.7953    1.0000 </r>
       <r>  -15.7952    1.0000 </r>
       <r>  -15.6451    1.0000 </r>
       <r>  -15.6449    1.0000 </r>
       <r>  -15.4916    1.0000 </r>
       <r>  -15.2373    1.0000 </r>
       <r>  -15.2373    1.0000 </r>
       <r>  -15.1464    1.0000 </r>
       <r>  -13.4414    1.0000 </r>
       <r>  -13.4414    1.0000 </r>
       <r>  -13.0346    1.0000 </r>
       <r>  -13.0078    1.0000 </r>
       <r>  -12.9963    1.0000 </r>
       <r>  -12.7983    1.0000 </r>
       <r>  -12.5597    1.0000 </r>
       <r>  -12.5596    1.0000 </r>
       <r>  -12.3781    1.0000 </r>
       <r>  -12.3780    1.0000 </r>
       <r>  -12.2272    1.0000 </r>
       <r>  -11.8190    1.0000 </r>
       <r>  -11.7715    1.0000 </r>
       <r>  -11.7715    1.0000 </r>
       <r>  -10.9601    1.0000 </r>
       <r>  -10.7463    1.0000 </r>
       <r>  -10.7463    1.0000 </r>
       <r>  -10.5983    1.0000 </r>
       <r>  -10.2688    1.0000 </r>
       <r>  -10.1403    1.0000 </r>
       <r>  -10.1402    1.0000 </r>
       <r>  -10.0503    1.0000 </r>
       <r>  -10.0502    1.0000 </r>
       <r>   -9.9626    1.0000 </r>
       <r>   -9.8484    1.0000 </r>
       <r>   -9.8483    1.0000 </r>
       <r>   -9.6940    1.0000 </r>
       <r>   -9.5319    1.0000 </r>
       <r>   -9.5319    1.0000 </r>
       <r>   -9.4668    1.0000 </r>
       <r>   -9.2819    1.0000 </r>
       <r>   -8.4015    1.0000 </r>
       <r>   -8.4015    1.0000 </r>
       <r>   -8.3751    1.0000 </r>
       <r>   -8.3751    1.0000 </r>
       <r>   -8.1133    1.0000 </r>
       <r>   -8.0581    1.0000 </r>
       <r>   -8.0424    1.0000 </r>
       <r>   -8.0423    1.0000 </r>
       <r>   -7.9654    1.0000 </r>
       <r>   -7.8331    1.0000 </r>
       <r>   -7.7489    1.0000 </r>
       <r>   -7.7488    1.0000 </r>
       <r>   -7.7096    1.0000 </r>
       <r>   -7.2021    1.0000 </r>
       <r>   -7.2021    1.0000 </r>
       <r>   -7.1267    1.0000 </r>
       <r>   -7.1267    1.0000 </r>
       <r>   -6.4077    1.0000 </r>
       <r>   -6.2884    1.0000 </r>
       <r>   -6.2884    1.0000 </r>
       <r>   -5.9176    1.0000 </r>
       <r>   -5.9113    1.0000 </r>
       <r>   -5.9113    1.0000 </r>
       <r>   -5.6837    1.0000 </r>
       <r>   -5.6837    1.0000 </r>
       <r>   -5.3660    1.0000 </r>
       <r>   -5.3660    1.0000 </r>
       <r>   -5.3260    1.0000 </r>
       <r>   -5.2607    1.0000 </r>
       <r>   -5.2606    1.0000 </r>
       <r>   -4.9751    1.0000 </r>
       <r>   -4.7978    1.0000 </r>
       <r>   -4.7978    1.0000 </r>
       <r>   -2.2646    0.0000 </r>
       <r>   -2.2646    0.0000 </r>
       <r>   -2.1674    0.0000 </r>
       <r>   -1.5720    0.0000 </r>
       <r>   -1.5720    0.0000 </r>
       <r>   -1.5362    0.0000 </r>
       <r>   -1.5362    0.0000 </r>
       <r>   -0.9938    0.0000 </r>
       <r>   -0.8964    0.0000 </r>
       <r>   -0.8963    0.0000 </r>
       <r>   -0.4191    0.0000 </r>
       <r>   -0.4190    0.0000 </r>
       <r>   -0.0835    0.0000 </r>
       <r>    0.0956    0.0000 </r>
       <r>    0.2425    0.0000 </r>
       <r>    0.7941    0.0000 </r>
       <r>    0.8740    0.0000 </r>
       <r>    0.9042    0.0000 </r>
       <r>    0.9043    0.0000 </r>
       <r>    0.9754    0.0000 </r>
       <r>    0.9932    0.0000 </r>
       <r>    0.9932    0.0000 </r>
       <r>    1.1199    0.0000 </r>
       <r>    1.2819    0.0000 </r>
       <r>    1.2821    0.0000 </r>
       <r>    1.3082    0.0000 </r>
       <r>    1.3082    0.0000 </r>
       <r>    1.4564    0.0000 </r>
       <r>    1.5323    0.0000 </r>
       <r>    1.5323    0.0000 </r>
       <r>    1.6746    0.0000 </r>
       <r>    1.6757    0.0000 </r>
      </set>
      <set comment="kpoint 2">
       <r>  -24.8796    1.0000 </r>
       <r>  -24.8649    1.0000 </r>
       <r>  -23.8007    1.0000 </r>
       <r>  -23.8005    1.0000 </r>
       <r>  -23.7658    1.0000 </r>
       <r>  -22.1187    1.0000 </r>
       <r>  -22.1186    1.0000 </r>
       <r>  -21.9668    1.0000 </r>
       <r>  -21.9066    1.0000 </r>
       <r>  -21.9056    1.0000 </r>
       <r>  -21.6998    1.0000 </r>
       <r>  -21.6995    1.0000 </r>
       <r>  -20.6730    1.0000 </r>
       <r>  -20.5849    1.0000 </r>
       <r>  -20.5847    1.0000 </r>
       <r>  -18.7144    1.0000 </r>
       <r>  -18.7141    1.0000 </r>
       <r>  -18.4129    1.0000 </r>
       <r>  -18.2542    1.0000 </r>
       <r>  -18.2515    1.0000 </r>
       <r>  -18.2515    1.0000 </r>
       <r>  -16.9028    1.0000 </r>
       <r>  -16.9014    1.0000 </r>
       <r>  -15.9148    1.0000 </r>
       <r>  -15.7953    1.0000 </r>
       <r>  -15.7952    1.0000 </r>
       <r>  -15.6466    1.0000 </r>
       <r>  -15.6450    1.0000 </r>
       <r>  -15.4916    1.0000 </r>
       <r>  -15.2522    1.0000 </r>
       <r>  -15.2373    1.0000 </r>
       <r>  -15.1286    1.0000 </r>
       <r>  -13.4440    1.0000 </r>
       <r>  -13.4414    1.0000 </r>
       <r>  -13.0346    1.0000 </r>
       <r>  -13.0078    1.0000 </r>
       <r>  -12.9952    1.0000 </r>
       <r>  -12.7984    1.0000 </r>
       <r>  -12.5596    1.0000 </r>
       <r>  -12.5595    1.0000 </r>
       <r>  -12.3787    1.0000 </r>
       <r>  -12.3780    1.0000 </r>
       <r>  -12.2270    1.0000 </r>
       <r>  -11.8340    1.0000 </r>
       <r>  -11.7715    1.0000 </r>
       <r>  -11.7549    1.0000 </r>
       <r>  -10.9603    1.0000 </r>
       <r>  -10.7464    1.0000 </r>
       <r>  -10.7462    1.0000 </r>
       <r>  -10.5983    1.0000 </r>
       <r>  -10.2696    1.0000 </r>
       <r>  -10.1405    1.0000 </r>
       <r>  -10.1399    1.0000 </r>
       <r>  -10.0502    1.0000 </r>
       <r>  -10.0488    1.0000 </r>
       <r>   -9.9627    1.0000 </r>
       <r>   -9.8494    1.0000 </r>
       <r>   -9.8485    1.0000 </r>
       <r>   -9.6939    1.0000 </r>
       <r>   -9.5358    1.0000 </r>
       <r>   -9.5321    1.0000 </r>
       <r>   -9.4673    1.0000 </r>
       <r>   -9.2774    1.0000 </r>
       <r>   -8.4029    1.0000 </r>
       <r>   -8.4017    1.0000 </r>
       <r>   -8.3751    1.0000 </r>
       <r>   -8.3746    1.0000 </r>
       <r>   -8.1136    1.0000 </r>
       <r>   -8.0574    1.0000 </r>
       <r>   -8.0421    1.0000 </r>
       <r>   -8.0420    1.0000 </r>
       <r>   -7.9654    1.0000 </r>
       <r>   -7.8332    1.0000 </r>
       <r>   -7.7489    1.0000 </r>
       <r>   -7.7488    1.0000 </r>
       <r>   -7.7097    1.0000 </r>
       <r>   -7.2021    1.0000 </r>
       <r>   -7.2020    1.0000 </r>
       <r>   -7.1268    1.0000 </r>
       <r>   -7.1267    1.0000 </r>
       <r>   -6.4075    1.0000 </r>
       <r>   -6.2886    1.0000 </r>
       <r>   -6.2884    1.0000 </r>
       <r>   -5.9176    1.0000 </r>
       <r>   -5.9113    1.0000 </r>
       <r>   -5.9113    1.0000 </r>
       <r>   -5.6837    1.0000 </r>
       <r>   -5.6834    1.0000 </r>
       <r>   -5.3678    1.0000 </r>
       <r>   -5.3663    1.0000 </r>
       <r>   -5.3247    1.0000 </r>
       <r>   -5.2606    1.0000 </r>
       <r>   -5.2605    1.0000 </r>
       <r>   -4.9748    1.0000 </r>
       <r>   -4.7980    1.0000 </r>
       <r>   -4.7978    1.0000 </r>
       <r>   -2.2646    0.0000 </r>
       <r>   -2.2644    0.0000 </r>
       <r>   -2.1676    0.0000 </r>
       <r>   -1.5725    0.0000 </r>
       <r>   -1.5723    0.0000 </r>
       <r>   -1.5359    0.0000 </r>
       <r>   -1.5356    0.0000 </r>
       <r>   -0.9937    0.0000 </r>
       <r>   -0.8965    0.0000 </r>
       <r>   -0.8964    0.0000 </r>
       <r>   -0.4190    0.0000 </r>
       <r>   -0.4186    0.0000 </r>
       <r>   -0.0840    0.0000 </r>
       <r>    0.0961    0.0000 </r>
       <r>    0.2430    0.0000 </r>
       <r>    0.7870    0.0000 </r>
       <r>    0.8746    0.0000 </r>
       <r>    0.9034    0.0000 </r>
       <r>    0.9054    0.0000 </r>
       <r>    0.9623    0.0000 </r>
       <r>    0.9929    0.0000 </r>
       <r>    1.0115    0.0000 </r>
       <r>    1.1191    0.0000 </r>
       <r>    1.2832    0.0000 </r>
       <r>    1.2833    0.0000 </r>
       <r>    1.3085    0.0000 </r>
       <r>    1.3089    0.0000 </r>
       <r>    1.4554    0.0000 </r>
       <r>    1.5295    0.0000 </r>
       <r>    1.5349    0.0000 </r>
       <r>    1.6716    0.0000 </r>
       <r>    1.6741    0.0000 </r>
      </set>
      <set comment="kpoint 3">
       <r>  -24.8795    1.0000 </r>
       <r>  -24.8650    1.0000 </r>
       <r>  -23.8006    1.0000 </r>
       <r>  -23.8004    1.0000 </r>
       <r>  -23.7660    1.0000 </r>
       <r>  -22.1187    1.0000 </r>
       <r>  -22.1182    1.0000 </r>
       <r>  -21.9694    1.0000 </r>
       <r>  -21.9066    1.0000 </r>
       <r>  -21.9027    1.0000 </r>
       <r>  -21.7004    1.0000 </r>
       <r>  -21.6995    1.0000 </r>
       <r>  -20.6725    1.0000 </r>
       <r>  -20.5852    1.0000 </r>
       <r>  -20.5847    1.0000 </r>
       <r>  -18.7144    1.0000 </r>
       <r>  -18.7131    1.0000 </r>
       <r>  -18.4148    1.0000 </r>
       <r>  -18.2542    1.0000 </r>
       <r>  -18.2515    1.0000 </r>
       <r>  -18.2515    1.0000 </r>
       <r>  -16.9028    1.0000 </r>
       <r>  -16.8972    1.0000 </r>
       <r>  -15.9180    1.0000 </r>
       <r>  -15.7953    1.0000 </r>
       <r>  -15.7952    1.0000 </r>
       <r>  -15.6511    1.0000 </r>
       <r>  -15.6450    1.0000 </r>
       <r>  -15.4915    1.0000 </r>
       <r>  -15.2809    1.0000 </r>
       <r>  -15.2373    1.0000 </r>
       <r>  -15.0913    1.0000 </r>
       <r>  -13.4518    1.0000 </r>
       <r>  -13.4414    1.0000 </r>
       <r>  -13.0345    1.0000 </r>
       <r>  -13.0079    1.0000 </r>
       <r>  -12.9923    1.0000 </r>
       <r>  -12.7987    1.0000 </r>
       <r>  -12.5596    1.0000 </r>
       <r>  -12.5593    1.0000 </r>
       <r>  -12.3804    1.0000 </r>
       <r>  -12.3781    1.0000 </r>
       <r>  -12.2263    1.0000 </r>
       <r>  -11.8596    1.0000 </r>
       <r>  -11.7715    1.0000 </r>
       <r>  -11.7247    1.0000 </r>
       <r>  -10.9609    1.0000 </r>
       <r>  -10.7464    1.0000 </r>
       <r>  -10.7458    1.0000 </r>
       <r>  -10.5984    1.0000 </r>
       <r>  -10.2719    1.0000 </r>
       <r>  -10.1414    1.0000 </r>
       <r>  -10.1389    1.0000 </r>
       <r>  -10.0502    1.0000 </r>
       <r>  -10.0447    1.0000 </r>
       <r>   -9.9629    1.0000 </r>
       <r>   -9.8524    1.0000 </r>
       <r>   -9.8489    1.0000 </r>
       <r>   -9.6938    1.0000 </r>
       <r>   -9.5463    1.0000 </r>
       <r>   -9.5327    1.0000 </r>
       <r>   -9.4689    1.0000 </r>
       <r>   -9.2649    1.0000 </r>
       <r>   -8.4069    1.0000 </r>
       <r>   -8.4022    1.0000 </r>
       <r>   -8.3750    1.0000 </r>
       <r>   -8.3729    1.0000 </r>
       <r>   -8.1145    1.0000 </r>
       <r>   -8.0555    1.0000 </r>
       <r>   -8.0414    1.0000 </r>
       <r>   -8.0412    1.0000 </r>
       <r>   -7.9655    1.0000 </r>
       <r>   -7.8336    1.0000 </r>
       <r>   -7.7491    1.0000 </r>
       <r>   -7.7489    1.0000 </r>
       <r>   -7.7100    1.0000 </r>
       <r>   -7.2020    1.0000 </r>
       <r>   -7.2017    1.0000 </r>
       <r>   -7.1273    1.0000 </r>
       <r>   -7.1268    1.0000 </r>
       <r>   -6.4069    1.0000 </r>
       <r>   -6.2891    1.0000 </r>
       <r>   -6.2884    1.0000 </r>
       <r>   -5.9176    1.0000 </r>
       <r>   -5.9113    1.0000 </r>
       <r>   -5.9113    1.0000 </r>
       <r>   -5.6836    1.0000 </r>
       <r>   -5.6823    1.0000 </r>
       <r>   -5.3726    1.0000 </r>
       <r>   -5.3672    1.0000 </r>
       <r>   -5.3215    1.0000 </r>
       <r>   -5.2602    1.0000 </r>
       <r>   -5.2600    1.0000 </r>
       <r>   -4.9739    1.0000 </r>
       <r>   -4.7987    1.0000 </r>
       <r>   -4.7978    1.0000 </r>
       <r>   -2.2646    0.0000 </r>
       <r>   -2.2640    0.0000 </r>
       <r>   -2.1679    0.0000 </r>
       <r>   -1.5739    0.0000 </r>
       <r>   -1.5731    0.0000 </r>
       <r>   -1.5349    0.0000 </r>
       <r>   -1.5341    0.0000 </r>
       <r>   -0.9933    0.0000 </r>
       <r>   -0.8970    0.0000 </r>
       <r>   -0.8966    0.0000 </r>
       <r>   -0.4190    0.0000 </r>
       <r>   -0.4172    0.0000 </r>
       <r>   -0.0858    0.0000 </r>
       <r>    0.0979    0.0000 </r>
       <r>    0.2446    0.0000 </r>
       <r>    0.7691    0.0000 </r>
       <r>    0.8766    0.0000 </r>
       <r>    0.8979    0.0000 </r>
       <r>    0.9009    0.0000 </r>
       <r>    0.9593    0.0000 </r>
       <r>    0.9920    0.0000 </r>
       <r>    1.0372    0.0000 </r>
       <r>    1.1168    0.0000 </r>
       <r>    1.2863    0.0000 </r>
       <r>    1.2867    0.0000 </r>
       <r>    1.3098    0.0000 </r>
       <r>    1.3113    0.0000 </r>
       <r>    1.4529    0.0000 </r>
       <r>    1.5223    0.0000 </r>
       <r>    1.5424    0.0000 </r>
       <r>    1.6584    0.0000 </r>
       <r>    1.6695    0.0000 </r>
      </set>
      <set comment="kpoint 4">
       <r>  -24.8794    1.0000 </r>
       <r>  -24.8651    1.0000 </r>
       <r>  -23.8006    1.0000 </r>
       <r>  -23.8002    1.0000 </r>
       <r>  -23.7662    1.0000 </r>
       <r>  -22.1187    1.0000 </r>
       <r>  -22.1176    1.0000 </r>
       <r>  -21.9733    1.0000 </r>
       <r>  -21.9066    1.0000 </r>
       <r>  -21.8984    1.0000 </r>
       <r>  -21.7015    1.0000 </r>
       <r>  -21.6995    1.0000 </r>
       <r>  -20.6718    1.0000 </r>
       <r>  -20.5858    1.0000 </r>
       <r>  -20.5847    1.0000 </r>
       <r>  -18.7144    1.0000 </r>
       <r>  -18.7113    1.0000 </r>
       <r>  -18.4179    1.0000 </r>
       <r>  -18.2542    1.0000 </r>
       <r>  -18.2515    1.0000 </r>
       <r>  -18.2515    1.0000 </r>
       <r>  -16.9028    1.0000 </r>
       <r>  -16.8904    1.0000 </r>
       <r>  -15.9235    1.0000 </r>
       <r>  -15.7953    1.0000 </r>
       <r>  -15.7951    1.0000 </r>
       <r>  -15.6584    1.0000 </r>
       <r>  -15.6449    1.0000 </r>
       <r>  -15.4912    1.0000 </r>
       <r>  -15.3107    1.0000 </r>
       <r>  -15.2372    1.0000 </r>
       <r>  -15.0473    1.0000 </r>
       <r>  -13.4645    1.0000 </r>
       <r>  -13.4415    1.0000 </r>
       <r>  -13.0343    1.0000 </r>
       <r>  -13.0081    1.0000 </r>
       <r>  -12.9875    1.0000 </r>
       <r>  -12.7992    1.0000 </r>
       <r>  -12.5596    1.0000 </r>
       <r>  -12.5589    1.0000 </r>
       <r>  -12.3833    1.0000 </r>
       <r>  -12.3781    1.0000 </r>
       <r>  -12.2252    1.0000 </r>
       <r>  -11.8857    1.0000 </r>
       <r>  -11.7716    1.0000 </r>
       <r>  -11.6911    1.0000 </r>
       <r>  -10.9618    1.0000 </r>
       <r>  -10.7465    1.0000 </r>
       <r>  -10.7451    1.0000 </r>
       <r>  -10.5986    1.0000 </r>
       <r>  -10.2756    1.0000 </r>
       <r>  -10.1427    1.0000 </r>
       <r>  -10.1371    1.0000 </r>
       <r>  -10.0501    1.0000 </r>
       <r>  -10.0380    1.0000 </r>
       <r>   -9.9631    1.0000 </r>
       <r>   -9.8574    1.0000 </r>
       <r>   -9.8496    1.0000 </r>
       <r>   -9.6935    1.0000 </r>
       <r>   -9.5614    1.0000 </r>
       <r>   -9.5336    1.0000 </r>
       <r>   -9.4720    1.0000 </r>
       <r>   -9.2461    1.0000 </r>
       <r>   -8.4135    1.0000 </r>
       <r>   -8.4030    1.0000 </r>
       <r>   -8.3749    1.0000 </r>
       <r>   -8.3702    1.0000 </r>
       <r>   -8.1160    1.0000 </r>
       <r>   -8.0528    1.0000 </r>
       <r>   -8.0397    1.0000 </r>
       <r>   -8.0397    1.0000 </r>
       <r>   -7.9656    1.0000 </r>
       <r>   -7.8343    1.0000 </r>
       <r>   -7.7495    1.0000 </r>
       <r>   -7.7489    1.0000 </r>
       <r>   -7.7104    1.0000 </r>
       <r>   -7.2017    1.0000 </r>
       <r>   -7.2011    1.0000 </r>
       <r>   -7.1280    1.0000 </r>
       <r>   -7.1268    1.0000 </r>
       <r>   -6.4059    1.0000 </r>
       <r>   -6.2899    1.0000 </r>
       <r>   -6.2883    1.0000 </r>
       <r>   -5.9176    1.0000 </r>
       <r>   -5.9114    1.0000 </r>
       <r>   -5.9114    1.0000 </r>
       <r>   -5.6834    1.0000 </r>
       <r>   -5.6805    1.0000 </r>
       <r>   -5.3793    1.0000 </r>
       <r>   -5.3687    1.0000 </r>
       <r>   -5.3173    1.0000 </r>
       <r>   -5.2597    1.0000 </r>
       <r>   -5.2592    1.0000 </r>
       <r>   -4.9723    1.0000 </r>
       <r>   -4.7999    1.0000 </r>
       <r>   -4.7978    1.0000 </r>
       <r>   -2.2646    0.0000 </r>
       <r>   -2.2631    0.0000 </r>
       <r>   -2.1686    0.0000 </r>
       <r>   -1.5761    0.0000 </r>
       <r>   -1.5745    0.0000 </r>
       <r>   -1.5335    0.0000 </r>
       <r>   -1.5317    0.0000 </r>
       <r>   -0.9925    0.0000 </r>
       <r>   -0.8979    0.0000 </r>
       <r>   -0.8969    0.0000 </r>
       <r>   -0.4190    0.0000 </r>
       <r>   -0.4150    0.0000 </r>
       <r>   -0.0887    0.0000 </r>
       <r>    0.1007    0.0000 </r>
       <r>    0.2473    0.0000 </r>
       <r>    0.7455    0.0000 </r>
       <r>    0.8762    0.0000 </r>
       <r>    0.8801    0.0000 </r>
       <r>    0.8970    0.0000 </r>
       <r>    0.9733    0.0000 </r>
       <r>    0.9905    0.0000 </r>
       <r>    1.0627    0.0000 </r>
       <r>    1.1140    0.0000 </r>
       <r>    1.2900    0.0000 </r>
       <r>    1.2909    0.0000 </r>
       <r>    1.3131    0.0000 </r>
       <r>    1.3163    0.0000 </r>
       <r>    1.4493    0.0000 </r>
       <r>    1.5130    0.0000 </r>
       <r>    1.5718    0.0000 </r>
       <r>    1.6382    0.0000 </r>
       <r>    1.6634    0.0000 </r>
      </set>
      <set comment="kpoint 5">
       <r>  -24.8792    1.0000 </r>
       <r>  -24.8653    1.0000 </r>
       <r>  -23.8006    1.0000 </r>
       <r>  -23.7998    1.0000 </r>
       <r>  -23.7666    1.0000 </r>
       <r>  -22.1186    1.0000 </r>
       <r>  -22.1167    1.0000 </r>
       <r>  -21.9782    1.0000 </r>
       <r>  -21.9066    1.0000 </r>
       <r>  -21.8931    1.0000 </r>
       <r>  -21.7030    1.0000 </r>
       <r>  -21.6995    1.0000 </r>
       <r>  -20.6708    1.0000 </r>
       <r>  -20.5867    1.0000 </r>
       <r>  -20.5847    1.0000 </r>
       <r>  -18.7144    1.0000 </r>
       <r>  -18.7089    1.0000 </r>
       <r>  -18.4223    1.0000 </r>
       <r>  -18.2542    1.0000 </r>
       <r>  -18.2515    1.0000 </r>
       <r>  -18.2515    1.0000 </r>
       <r>  -16.9028    1.0000 </r>
       <r>  -16.8809    1.0000 </r>
       <r>  -15.9316    1.0000 </r>
       <r>  -15.7953    1.0000 </r>
       <r>  -15.7950    1.0000 </r>
       <r>  -15.6683    1.0000 </r>
       <r>  -15.6449    1.0000 </r>
       <r>  -15.4910    1.0000 </r>
       <r>  -15.3379    1.0000 </r>
       <r>  -15.2372    1.0000 </r>
       <r>  -15.0001    1.0000 </r>
       <r>  -13.4817    1.0000 </r>
       <r>  -13.4415    1.0000 </r>
       <r>  -13.0340    1.0000 </r>
       <r>  -13.0084    1.0000 </r>
       <r>  -12.9813    1.0000 </r>
       <r>  -12.7999    1.0000 </r>
       <r>  -12.5596    1.0000 </r>
       <r>  -12.5582    1.0000 </r>
       <r>  -12.3872    1.0000 </r>
       <r>  -12.3781    1.0000 </r>
       <r>  -12.2236    1.0000 </r>
       <r>  -11.9107    1.0000 </r>
       <r>  -11.7717    1.0000 </r>
       <r>  -11.6558    1.0000 </r>
       <r>  -10.9631    1.0000 </r>
       <r>  -10.7467    1.0000 </r>
       <r>  -10.7440    1.0000 </r>
       <r>  -10.5990    1.0000 </r>
       <r>  -10.2803    1.0000 </r>
       <r>  -10.1444    1.0000 </r>
       <r>  -10.1347    1.0000 </r>
       <r>  -10.0501    1.0000 </r>
       <r>  -10.0293    1.0000 </r>
       <r>   -9.9635    1.0000 </r>
       <r>   -9.8644    1.0000 </r>
       <r>   -9.8505    1.0000 </r>
       <r>   -9.6931    1.0000 </r>
       <r>   -9.5786    1.0000 </r>
       <r>   -9.5348    1.0000 </r>
       <r>   -9.4767    1.0000 </r>
       <r>   -9.2229    1.0000 </r>
       <r>   -8.4223    1.0000 </r>
       <r>   -8.4041    1.0000 </r>
       <r>   -8.3748    1.0000 </r>
       <r>   -8.3664    1.0000 </r>
       <r>   -8.1180    1.0000 </r>
       <r>   -8.0504    1.0000 </r>
       <r>   -8.0377    1.0000 </r>
       <r>   -8.0363    1.0000 </r>
       <r>   -7.9657    1.0000 </r>
       <r>   -7.8354    1.0000 </r>
       <r>   -7.7500    1.0000 </r>
       <r>   -7.7489    1.0000 </r>
       <r>   -7.7110    1.0000 </r>
       <r>   -7.2014    1.0000 </r>
       <r>   -7.2004    1.0000 </r>
       <r>   -7.1290    1.0000 </r>
       <r>   -7.1269    1.0000 </r>
       <r>   -6.4046    1.0000 </r>
       <r>   -6.2910    1.0000 </r>
       <r>   -6.2882    1.0000 </r>
       <r>   -5.9175    1.0000 </r>
       <r>   -5.9115    1.0000 </r>
       <r>   -5.9114    1.0000 </r>
       <r>   -5.6832    1.0000 </r>
       <r>   -5.6780    1.0000 </r>
       <r>   -5.3874    1.0000 </r>
       <r>   -5.3706    1.0000 </r>
       <r>   -5.3129    1.0000 </r>
       <r>   -5.2590    1.0000 </r>
       <r>   -5.2582    1.0000 </r>
       <r>   -4.9702    1.0000 </r>
       <r>   -4.8016    1.0000 </r>
       <r>   -4.7978    1.0000 </r>
       <r>   -2.2646    0.0000 </r>
       <r>   -2.2620    0.0000 </r>
       <r>   -2.1695    0.0000 </r>
       <r>   -1.5788    0.0000 </r>
       <r>   -1.5762    0.0000 </r>
       <r>   -1.5317    0.0000 </r>
       <r>   -1.5289    0.0000 </r>
       <r>   -0.9915    0.0000 </r>
       <r>   -0.8990    0.0000 </r>
       <r>   -0.8974    0.0000 </r>
       <r>   -0.4190    0.0000 </r>
       <r>   -0.4118    0.0000 </r>
       <r>   -0.0926    0.0000 </r>
       <r>    0.1047    0.0000 </r>
       <r>    0.2510    0.0000 </r>
       <r>    0.7193    0.0000 </r>
       <r>    0.8499    0.0000 </r>
       <r>    0.8845    0.0000 </r>
       <r>    0.8919    0.0000 </r>
       <r>    0.9884    0.0000 </r>
       <r>    0.9928    0.0000 </r>
       <r>    1.0864    0.0000 </r>
       <r>    1.1129    0.0000 </r>
       <r>    1.2926    0.0000 </r>
       <r>    1.2941    0.0000 </r>
       <r>    1.3202    0.0000 </r>
       <r>    1.3247    0.0000 </r>
       <r>    1.4455    0.0000 </r>
       <r>    1.5040    0.0000 </r>
       <r>    1.6133    0.0000 </r>
       <r>    1.6530    0.0000 </r>
       <r>    1.6593    0.0000 </r>
      </set>
      <set comment="kpoint 6">
       <r>  -24.8790    1.0000 </r>
       <r>  -24.8655    1.0000 </r>
       <r>  -23.8006    1.0000 </r>
       <r>  -23.7994    1.0000 </r>
       <r>  -23.7671    1.0000 </r>
       <r>  -22.1186    1.0000 </r>
       <r>  -22.1156    1.0000 </r>
       <r>  -21.9835    1.0000 </r>
       <r>  -21.9066    1.0000 </r>
       <r>  -21.8871    1.0000 </r>
       <r>  -21.7050    1.0000 </r>
       <r>  -21.6995    1.0000 </r>
       <r>  -20.6695    1.0000 </r>
       <r>  -20.5877    1.0000 </r>
       <r>  -20.5847    1.0000 </r>
       <r>  -18.7144    1.0000 </r>
       <r>  -18.7059    1.0000 </r>
       <r>  -18.4277    1.0000 </r>
       <r>  -18.2541    1.0000 </r>
       <r>  -18.2516    1.0000 </r>
       <r>  -18.2514    1.0000 </r>
       <r>  -16.9028    1.0000 </r>
       <r>  -16.8688    1.0000 </r>
       <r>  -15.9427    1.0000 </r>
       <r>  -15.7953    1.0000 </r>
       <r>  -15.7949    1.0000 </r>
       <r>  -15.6801    1.0000 </r>
       <r>  -15.6449    1.0000 </r>
       <r>  -15.4906    1.0000 </r>
       <r>  -15.3617    1.0000 </r>
       <r>  -15.2372    1.0000 </r>
       <r>  -14.9510    1.0000 </r>
       <r>  -13.5031    1.0000 </r>
       <r>  -13.4416    1.0000 </r>
       <r>  -13.0336    1.0000 </r>
       <r>  -13.0088    1.0000 </r>
       <r>  -12.9739    1.0000 </r>
       <r>  -12.8009    1.0000 </r>
       <r>  -12.5595    1.0000 </r>
       <r>  -12.5574    1.0000 </r>
       <r>  -12.3920    1.0000 </r>
       <r>  -12.3782    1.0000 </r>
       <r>  -12.2216    1.0000 </r>
       <r>  -11.9341    1.0000 </r>
       <r>  -11.7718    1.0000 </r>
       <r>  -11.6195    1.0000 </r>
       <r>  -10.9648    1.0000 </r>
       <r>  -10.7468    1.0000 </r>
       <r>  -10.7427    1.0000 </r>
       <r>  -10.5994    1.0000 </r>
       <r>  -10.2858    1.0000 </r>
       <r>  -10.1467    1.0000 </r>
       <r>  -10.1317    1.0000 </r>
       <r>  -10.0500    1.0000 </r>
       <r>  -10.0188    1.0000 </r>
       <r>   -9.9640    1.0000 </r>
       <r>   -9.8735    1.0000 </r>
       <r>   -9.8517    1.0000 </r>
       <r>   -9.6926    1.0000 </r>
       <r>   -9.5966    1.0000 </r>
       <r>   -9.5363    1.0000 </r>
       <r>   -9.4829    1.0000 </r>
       <r>   -9.1969    1.0000 </r>
       <r>   -8.4332    1.0000 </r>
       <r>   -8.4054    1.0000 </r>
       <r>   -8.3747    1.0000 </r>
       <r>   -8.3617    1.0000 </r>
       <r>   -8.1207    1.0000 </r>
       <r>   -8.0488    1.0000 </r>
       <r>   -8.0352    1.0000 </r>
       <r>   -8.0309    1.0000 </r>
       <r>   -7.9659    1.0000 </r>
       <r>   -7.8367    1.0000 </r>
       <r>   -7.7506    1.0000 </r>
       <r>   -7.7489    1.0000 </r>
       <r>   -7.7117    1.0000 </r>
       <r>   -7.2011    1.0000 </r>
       <r>   -7.1994    1.0000 </r>
       <r>   -7.1302    1.0000 </r>
       <r>   -7.1270    1.0000 </r>
       <r>   -6.4028    1.0000 </r>
       <r>   -6.2924    1.0000 </r>
       <r>   -6.2880    1.0000 </r>
       <r>   -5.9175    1.0000 </r>
       <r>   -5.9117    1.0000 </r>
       <r>   -5.9115    1.0000 </r>
       <r>   -5.6829    1.0000 </r>
       <r>   -5.6748    1.0000 </r>
       <r>   -5.3963    1.0000 </r>
       <r>   -5.3729    1.0000 </r>
       <r>   -5.3085    1.0000 </r>
       <r>   -5.2580    1.0000 </r>
       <r>   -5.2569    1.0000 </r>
       <r>   -4.9675    1.0000 </r>
       <r>   -4.8037    1.0000 </r>
       <r>   -4.7978    1.0000 </r>
       <r>   -2.2645    0.0000 </r>
       <r>   -2.2606    0.0000 </r>
       <r>   -2.1707    0.0000 </r>
       <r>   -1.5817    0.0000 </r>
       <r>   -1.5781    0.0000 </r>
       <r>   -1.5296    0.0000 </r>
       <r>   -1.5258    0.0000 </r>
       <r>   -0.9903    0.0000 </r>
       <r>   -0.9005    0.0000 </r>
       <r>   -0.8979    0.0000 </r>
       <r>   -0.4190    0.0000 </r>
       <r>   -0.4078    0.0000 </r>
       <r>   -0.0976    0.0000 </r>
       <r>    0.1098    0.0000 </r>
       <r>    0.2557    0.0000 </r>
       <r>    0.6919    0.0000 </r>
       <r>    0.8220    0.0000 </r>
       <r>    0.8858    0.0000 </r>
       <r>    0.8904    0.0000 </r>
       <r>    0.9859    0.0000 </r>
       <r>    1.0113    0.0000 </r>
       <r>    1.1034    0.0000 </r>
       <r>    1.1197    0.0000 </r>
       <r>    1.2936    0.0000 </r>
       <r>    1.2957    0.0000 </r>
       <r>    1.3312    0.0000 </r>
       <r>    1.3363    0.0000 </r>
       <r>    1.4415    0.0000 </r>
       <r>    1.4966    0.0000 </r>
       <r>    1.5859    0.0000 </r>
       <r>    1.5869    0.0000 </r>
       <r>    1.6463    0.0000 </r>
      </set>
      <set comment="kpoint 7">
       <r>  -24.8788    1.0000 </r>
       <r>  -24.8657    1.0000 </r>
       <r>  -23.8006    1.0000 </r>
       <r>  -23.7988    1.0000 </r>
       <r>  -23.7676    1.0000 </r>
       <r>  -22.1186    1.0000 </r>
       <r>  -22.1142    1.0000 </r>
       <r>  -21.9892    1.0000 </r>
       <r>  -21.9066    1.0000 </r>
       <r>  -21.8806    1.0000 </r>
       <r>  -21.7073    1.0000 </r>
       <r>  -21.6995    1.0000 </r>
       <r>  -20.6679    1.0000 </r>
       <r>  -20.5890    1.0000 </r>
       <r>  -20.5847    1.0000 </r>
       <r>  -18.7144    1.0000 </r>
       <r>  -18.7022    1.0000 </r>
       <r>  -18.4341    1.0000 </r>
       <r>  -18.2541    1.0000 </r>
       <r>  -18.2516    1.0000 </r>
       <r>  -18.2514    1.0000 </r>
       <r>  -16.9029    1.0000 </r>
       <r>  -16.8543    1.0000 </r>
       <r>  -15.9570    1.0000 </r>
       <r>  -15.7953    1.0000 </r>
       <r>  -15.7947    1.0000 </r>
       <r>  -15.6930    1.0000 </r>
       <r>  -15.6449    1.0000 </r>
       <r>  -15.4901    1.0000 </r>
       <r>  -15.3818    1.0000 </r>
       <r>  -15.2371    1.0000 </r>
       <r>  -14.9007    1.0000 </r>
       <r>  -13.5280    1.0000 </r>
       <r>  -13.4417    1.0000 </r>
       <r>  -13.0332    1.0000 </r>
       <r>  -13.0092    1.0000 </r>
       <r>  -12.9658    1.0000 </r>
       <r>  -12.8020    1.0000 </r>
       <r>  -12.5595    1.0000 </r>
       <r>  -12.5563    1.0000 </r>
       <r>  -12.3978    1.0000 </r>
       <r>  -12.3782    1.0000 </r>
       <r>  -12.2192    1.0000 </r>
       <r>  -11.9559    1.0000 </r>
       <r>  -11.7719    1.0000 </r>
       <r>  -11.5825    1.0000 </r>
       <r>  -10.9670    1.0000 </r>
       <r>  -10.7470    1.0000 </r>
       <r>  -10.7410    1.0000 </r>
       <r>  -10.6000    1.0000 </r>
       <r>  -10.2918    1.0000 </r>
       <r>  -10.1494    1.0000 </r>
       <r>  -10.1281    1.0000 </r>
       <r>  -10.0499    1.0000 </r>
       <r>  -10.0070    1.0000 </r>
       <r>   -9.9647    1.0000 </r>
       <r>   -9.8844    1.0000 </r>
       <r>   -9.8532    1.0000 </r>
       <r>   -9.6920    1.0000 </r>
       <r>   -9.6140    1.0000 </r>
       <r>   -9.5381    1.0000 </r>
       <r>   -9.4904    1.0000 </r>
       <r>   -9.1691    1.0000 </r>
       <r>   -8.4459    1.0000 </r>
       <r>   -8.4069    1.0000 </r>
       <r>   -8.3746    1.0000 </r>
       <r>   -8.3562    1.0000 </r>
       <r>   -8.1239    1.0000 </r>
       <r>   -8.0479    1.0000 </r>
       <r>   -8.0323    1.0000 </r>
       <r>   -8.0237    1.0000 </r>
       <r>   -7.9662    1.0000 </r>
       <r>   -7.8384    1.0000 </r>
       <r>   -7.7513    1.0000 </r>
       <r>   -7.7489    1.0000 </r>
       <r>   -7.7125    1.0000 </r>
       <r>   -7.2006    1.0000 </r>
       <r>   -7.1983    1.0000 </r>
       <r>   -7.1317    1.0000 </r>
       <r>   -7.1272    1.0000 </r>
       <r>   -6.4007    1.0000 </r>
       <r>   -6.2940    1.0000 </r>
       <r>   -6.2879    1.0000 </r>
       <r>   -5.9174    1.0000 </r>
       <r>   -5.9118    1.0000 </r>
       <r>   -5.9116    1.0000 </r>
       <r>   -5.6826    1.0000 </r>
       <r>   -5.6709    1.0000 </r>
       <r>   -5.4058    1.0000 </r>
       <r>   -5.3756    1.0000 </r>
       <r>   -5.3046    1.0000 </r>
       <r>   -5.2568    1.0000 </r>
       <r>   -5.2556    1.0000 </r>
       <r>   -4.9642    1.0000 </r>
       <r>   -4.8062    1.0000 </r>
       <r>   -4.7978    1.0000 </r>
       <r>   -2.2645    0.0000 </r>
       <r>   -2.2589    0.0000 </r>
       <r>   -2.1721    0.0000 </r>
       <r>   -1.5847    0.0000 </r>
       <r>   -1.5802    0.0000 </r>
       <r>   -1.5274    0.0000 </r>
       <r>   -1.5225    0.0000 </r>
       <r>   -0.9887    0.0000 </r>
       <r>   -0.9022    0.0000 </r>
       <r>   -0.8985    0.0000 </r>
       <r>   -0.4190    0.0000 </r>
       <r>   -0.4030    0.0000 </r>
       <r>   -0.1036    0.0000 </r>
       <r>    0.1160    0.0000 </r>
       <r>    0.2615    0.0000 </r>
       <r>    0.6640    0.0000 </r>
       <r>    0.7938    0.0000 </r>
       <r>    0.8791    0.0000 </r>
       <r>    0.8975    0.0000 </r>
       <r>    0.9831    0.0000 </r>
       <r>    1.0247    0.0000 </r>
       <r>    1.1131    0.0000 </r>
       <r>    1.1376    0.0000 </r>
       <r>    1.2930    0.0000 </r>
       <r>    1.2965    0.0000 </r>
       <r>    1.3451    0.0000 </r>
       <r>    1.3499    0.0000 </r>
       <r>    1.4376    0.0000 </r>
       <r>    1.4914    0.0000 </r>
       <r>    1.5584    0.0000 </r>
       <r>    1.6322    0.0000 </r>
       <r>    1.6764    0.0000 </r>
      </set>
      <set comment="kpoint 8">
       <r>  -24.8786    1.0000 </r>
       <r>  -24.8660    1.0000 </r>
       <r>  -23.8006    1.0000 </r>
       <r>  -23.7982    1.0000 </r>
       <r>  -23.7683    1.0000 </r>
       <r>  -22.1186    1.0000 </r>
       <r>  -22.1126    1.0000 </r>
       <r>  -21.9951    1.0000 </r>
       <r>  -21.9066    1.0000 </r>
       <r>  -21.8739    1.0000 </r>
       <r>  -21.7100    1.0000 </r>
       <r>  -21.6995    1.0000 </r>
       <r>  -20.6661    1.0000 </r>
       <r>  -20.5905    1.0000 </r>
       <r>  -20.5847    1.0000 </r>
       <r>  -18.7144    1.0000 </r>
       <r>  -18.6979    1.0000 </r>
       <r>  -18.4415    1.0000 </r>
       <r>  -18.2540    1.0000 </r>
       <r>  -18.2517    1.0000 </r>
       <r>  -18.2515    1.0000 </r>
       <r>  -16.9029    1.0000 </r>
       <r>  -16.8376    1.0000 </r>
       <r>  -15.9748    1.0000 </r>
       <r>  -15.7953    1.0000 </r>
       <r>  -15.7945    1.0000 </r>
       <r>  -15.7061    1.0000 </r>
       <r>  -15.6448    1.0000 </r>
       <r>  -15.4896    1.0000 </r>
       <r>  -15.3983    1.0000 </r>
       <r>  -15.2371    1.0000 </r>
       <r>  -14.8496    1.0000 </r>
       <r>  -13.5562    1.0000 </r>
       <r>  -13.4417    1.0000 </r>
       <r>  -13.0327    1.0000 </r>
       <r>  -13.0097    1.0000 </r>
       <r>  -12.9571    1.0000 </r>
       <r>  -12.8034    1.0000 </r>
       <r>  -12.5595    1.0000 </r>
       <r>  -12.5551    1.0000 </r>
       <r>  -12.4042    1.0000 </r>
       <r>  -12.3783    1.0000 </r>
       <r>  -12.2164    1.0000 </r>
       <r>  -11.9761    1.0000 </r>
       <r>  -11.7721    1.0000 </r>
       <r>  -11.5451    1.0000 </r>
       <r>  -10.9697    1.0000 </r>
       <r>  -10.7472    1.0000 </r>
       <r>  -10.7390    1.0000 </r>
       <r>  -10.6008    1.0000 </r>
       <r>  -10.2981    1.0000 </r>
       <r>  -10.1527    1.0000 </r>
       <r>  -10.1240    1.0000 </r>
       <r>  -10.0497    1.0000 </r>
       <r>   -9.9944    1.0000 </r>
       <r>   -9.9655    1.0000 </r>
       <r>   -9.8969    1.0000 </r>
       <r>   -9.8548    1.0000 </r>
       <r>   -9.6913    1.0000 </r>
       <r>   -9.6302    1.0000 </r>
       <r>   -9.5401    1.0000 </r>
       <r>   -9.4991    1.0000 </r>
       <r>   -9.1403    1.0000 </r>
       <r>   -8.4601    1.0000 </r>
       <r>   -8.4084    1.0000 </r>
       <r>   -8.3745    1.0000 </r>
       <r>   -8.3499    1.0000 </r>
       <r>   -8.1276    1.0000 </r>
       <r>   -8.0475    1.0000 </r>
       <r>   -8.0291    1.0000 </r>
       <r>   -8.0153    1.0000 </r>
       <r>   -7.9665    1.0000 </r>
       <r>   -7.8404    1.0000 </r>
       <r>   -7.7520    1.0000 </r>
       <r>   -7.7490    1.0000 </r>
       <r>   -7.7135    1.0000 </r>
       <r>   -7.2002    1.0000 </r>
       <r>   -7.1969    1.0000 </r>
       <r>   -7.1334    1.0000 </r>
       <r>   -7.1273    1.0000 </r>
       <r>   -6.3983    1.0000 </r>
       <r>   -6.2960    1.0000 </r>
       <r>   -6.2877    1.0000 </r>
       <r>   -5.9173    1.0000 </r>
       <r>   -5.9120    1.0000 </r>
       <r>   -5.9118    1.0000 </r>
       <r>   -5.6822    1.0000 </r>
       <r>   -5.6664    1.0000 </r>
       <r>   -5.4159    1.0000 </r>
       <r>   -5.3785    1.0000 </r>
       <r>   -5.3010    1.0000 </r>
       <r>   -5.2554    1.0000 </r>
       <r>   -5.2541    1.0000 </r>
       <r>   -4.9605    1.0000 </r>
       <r>   -4.8091    1.0000 </r>
[...]
       <r>    0.2425    0.0000 </r>
       <r>    0.7941    0.0000 </r>
       <r>    0.8740    0.0000 </r>
       <r>    0.9042    0.0000 </r>
       <r>    0.9043    0.0000 </r>
       <r>    0.9754    0.0000 </r>
       <r>    0.9932    0.0000 </r>
       <r>    0.9932    0.0000 </r>
       <r>    1.1199    0.0000 </r>
       <r>    1.2820    0.0000 </r>
       <r>    1.2821    0.0000 </r>
       <r>    1.3082    0.0000 </r>
       <r>    1.3083    0.0000 </r>
       <r>    1.4564    0.0000 </r>
       <r>    1.5323    0.0000 </r>
       <r>    1.5324    0.0000 </r>
       <r>    1.6759    0.0000 </r>
       <r>    1.6759    0.0000 </r>
      </set>
     </set>
    </set>
   </array>
  </eigenvalues>
  <separator name="orbital magnetization" >
   <v name="MAGDIPOLOUT">      0.00000000      0.00000000      0.00000000</v>
  </separator>
  <dos>
   <i name="efermi">     -4.74985161 </i>
   <total>
    <array>
     <dimension dim="1">gridpoints</dimension>
     <dimension dim="2">spin</dimension>
     <field>energy</field>
     <field>total</field>
     <field>integrated</field>
     <set>
      <set comment="spin 1">
       <r>   -26.2146     0.0000     0.0000 </r>
       <r>   -26.1167     0.0000     0.0000 </r>
       <r>   -26.0188     0.0000     0.0000 </r>
       <r>   -25.9209     0.0000     0.0000 </r>
       <r>   -25.8230     0.0000     0.0000 </r>
       <r>   -25.7251     0.0000     0.0000 </r>
       <r>   -25.6272     0.0000     0.0000 </r>
       <r>   -25.5293     0.0000     0.0000 </r>
       <r>   -25.4314     0.0000     0.0000 </r>
       <r>   -25.3335     0.0000     0.0000 </r>
       <r>   -25.2356     0.0000     0.0000 </r>
       <r>   -25.1377     0.0000     0.0000 </r>
       <r>   -25.0398     0.0000     0.0000 </r>
       <r>   -24.9419     0.0000     0.0000 </r>
       <r>   -24.8440    40.8478     3.9990 </r>
       <r>   -24.7461     0.0000     4.0000 </r>
       <r>   -24.6482     0.0000     4.0000 </r>
       <r>   -24.5503     0.0000     4.0000 </r>
       <r>   -24.4524     0.0000     4.0000 </r>
       <r>   -24.3545     0.0000     4.0000 </r>
       <r>   -24.2566     0.0000     4.0000 </r>
       <r>   -24.1587     0.0000     4.0000 </r>
       <r>   -24.0608     0.0000     4.0000 </r>
       <r>   -23.9629     0.0000     4.0000 </r>
       <r>   -23.8650     0.0000     4.0000 </r>
       <r>   -23.7671    56.8167     9.5624 </r>
       <r>   -23.6692     0.0000    10.0000 </r>
       <r>   -23.5713     0.0000    10.0000 </r>
       <r>   -23.4734     0.0000    10.0000 </r>
       <r>   -23.3755     0.0000    10.0000 </r>
       <r>   -23.2776     0.0000    10.0000 </r>
       <r>   -23.1797     0.0000    10.0000 </r>
       <r>   -23.0818     0.0000    10.0000 </r>
       <r>   -22.9839     0.0000    10.0000 </r>
       <r>   -22.8860     0.0000    10.0000 </r>
       <r>   -22.7881     0.0000    10.0000 </r>
       <r>   -22.6902     0.0000    10.0000 </r>
       <r>   -22.5923     0.0000    10.0000 </r>
       <r>   -22.4944     0.0000    10.0000 </r>
       <r>   -22.3965     0.0000    10.0000 </r>
       <r>   -22.2986     0.0000    10.0000 </r>
       <r>   -22.2007     0.0000    10.0000 </r>
       <r>   -22.1028    27.7230    12.7141 </r>
       <r>   -22.0049    20.0261    15.4277 </r>
       <r>   -21.9070    14.3928    17.0425 </r>
       <r>   -21.8091     9.0987    19.2242 </r>
       <r>   -21.7112    19.7317    21.6321 </r>
       <r>   -21.6133     0.0000    24.0000 </r>
       <r>   -21.5154     0.0000    24.0000 </r>
       <r>   -21.4175     0.0000    24.0000 </r>
       <r>   -21.3196     0.0000    24.0000 </r>
       <r>   -21.2217     0.0000    24.0000 </r>
       <r>   -21.1238     0.0000    24.0000 </r>
       <r>   -21.0259     0.0000    24.0000 </r>
       <r>   -20.9280     0.0000    24.0000 </r>
       <r>   -20.8301     0.0000    24.0000 </r>
       <r>   -20.7322     0.0000    24.0000 </r>
       <r>   -20.6343    16.7072    25.6357 </r>
       <r>   -20.5363    36.0828    30.0000 </r>
       <r>   -20.4384     0.0000    30.0000 </r>
       <r>   -20.3405     0.0000    30.0000 </r>
       <r>   -20.2426     0.0000    30.0000 </r>
       <r>   -20.1447     0.0000    30.0000 </r>
       <r>   -20.0468     0.0000    30.0000 </r>
       <r>   -19.9489     0.0000    30.0000 </r>
       <r>   -19.8510     0.0000    30.0000 </r>
       <r>   -19.7531     0.0000    30.0000 </r>
       <r>   -19.6552     0.0000    30.0000 </r>
       <r>   -19.5573     0.0000    30.0000 </r>
       <r>   -19.4594     0.0000    30.0000 </r>
       <r>   -19.3615     0.0000    30.0000 </r>
       <r>   -19.2636     0.0000    30.0000 </r>
       <r>   -19.1657     0.0000    30.0000 </r>
       <r>   -19.0678     0.0000    30.0000 </r>
       <r>   -18.9699     0.0000    30.0000 </r>
       <r>   -18.8720     0.0000    30.0000 </r>
       <r>   -18.7741     0.0000    30.0000 </r>
       <r>   -18.6762    27.6184    32.7039 </r>
       <r>   -18.5783    12.6683    34.1070 </r>
       <r>   -18.4804     9.5123    35.2647 </r>
       <r>   -18.3825     6.4679    36.0000 </r>
       <r>   -18.2846     0.0002    36.0000 </r>
       <r>   -18.1867    61.2864    42.0000 </r>
       <r>   -18.0888     0.0000    42.0000 </r>
       <r>   -17.9909     0.0000    42.0000 </r>
       <r>   -17.8930     0.0000    42.0000 </r>
       <r>   -17.7951     0.0000    42.0000 </r>
       <r>   -17.6972     0.0000    42.0000 </r>
       <r>   -17.5993     0.0000    42.0000 </r>
       <r>   -17.5014     0.0000    42.0000 </r>
       <r>   -17.4035     0.0000    42.0000 </r>
       <r>   -17.3056     0.0000    42.0000 </r>
       <r>   -17.2077     0.0000    42.0000 </r>
       <r>   -17.1098     0.0000    42.0000 </r>
       <r>   -17.0119     0.0000    42.0000 </r>
       <r>   -16.9140     1.3427    42.1315 </r>
       <r>   -16.8161     3.8096    44.5398 </r>
       <r>   -16.7182     2.3659    44.7985 </r>
       <r>   -16.6203     1.7678    45.0397 </r>
       <r>   -16.5224     5.5597    45.6777 </r>
       <r>   -16.4245     3.5048    46.0766 </r>
       <r>   -16.3266     2.9213    46.4194 </r>
       <r>   -16.2287     4.9036    46.9801 </r>
       <r>   -16.1308     1.5952    47.1895 </r>
       <r>   -16.0329     1.7909    47.3754 </r>
       <r>   -15.9350     2.7408    47.7017 </r>
       <r>   -15.8371     1.3595    48.0000 </r>
       <r>   -15.7392    54.6280    53.3481 </r>
       <r>   -15.6413    19.2562    55.3187 </r>
       <r>   -15.5434     0.0000    56.0000 </r>
       <r>   -15.4455    32.7192    59.2032 </r>
       <r>   -15.3476     3.3504    59.6948 </r>
       <r>   -15.2497     2.5694    59.9849 </r>
       <r>   -15.1518     0.1516    62.0148 </r>
       <r>   -15.0539     1.4213    62.2058 </r>
       <r>   -14.9560     1.0947    62.3405 </r>
       <r>   -14.8581     0.8018    62.4452 </r>
       <r>   -14.7602     0.6902    62.5676 </r>
       <r>   -14.6623     1.0029    62.6982 </r>
       <r>   -14.5644     0.7101    62.8028 </r>
       <r>   -14.4665     0.7460    62.9397 </r>
       <r>   -14.3686     2.3705    63.1987 </r>
       <r>   -14.2707     3.1086    63.6378 </r>
       <r>   -14.1728     2.2485    63.8869 </r>
       <r>   -14.0749     2.5644    64.1844 </r>
       <r>   -13.9770     2.3205    64.4605 </r>
       <r>   -13.8791     4.7805    64.9681 </r>
       <r>   -13.7812     1.3678    65.1339 </r>
       <r>   -13.6833     1.3352    65.2974 </r>
       <r>   -13.5854     1.4779    65.4780 </r>
       <r>   -13.4875     2.0589    65.7016 </r>
       <r>   -13.3896    22.8120    68.0000 </r>
       <r>   -13.2917     0.0000    68.0000 </r>
       <r>   -13.1938     0.0000    68.0000 </r>
       <r>   -13.0959     0.0000    68.0000 </r>
       <r>   -12.9980    41.0324    72.0171 </r>
       <r>   -12.9001     6.0083    72.8883 </r>
       <r>   -12.8022    26.2047    75.6326 </r>
       <r>   -12.7043     0.0000    76.0000 </r>
       <r>   -12.6064     0.0000    76.0000 </r>
       <r>   -12.5085    40.4084    79.9560 </r>
       <r>   -12.4106    11.6739    81.4766 </r>
       <r>   -12.3127    24.1717    84.0000 </r>
       <r>   -12.2148     4.8661    84.4764 </r>
       <r>   -12.1169    16.7749    86.4424 </r>
       <r>   -12.0190     4.5354    87.3775 </r>
       <r>   -11.9211     2.6447    87.6923 </r>
       <r>   -11.8232     2.2019    87.9489 </r>
       <r>   -11.7253    21.9723    90.1511 </r>
       <r>   -11.6274     1.3402    90.3312 </r>
       <r>   -11.5295     1.3560    90.4994 </r>
       <r>   -11.4316     1.5936    90.6561 </r>
       <r>   -11.3337     1.4124    90.8383 </r>
       <r>   -11.2358     2.0522    91.0676 </r>
       <r>   -11.1379     4.9776    91.7874 </r>
       <r>   -11.0400     6.8264    92.5683 </r>
       <r>   -10.9421    10.5421    93.9988 </r>
       <r>   -10.8442     0.0000    94.0000 </r>
       <r>   -10.7463    15.0244    95.4709 </r>
       <r>   -10.6484    15.3174    98.1998 </r>
       <r>   -10.5505    14.9761   100.0000 </r>
       <r>   -10.4526     0.0000   100.0000 </r>
       <r>   -10.3547     0.1181   100.0116 </r>
       <r>   -10.2568    20.4278   102.5004 </r>
       <r>   -10.1589     8.5838   103.4739 </r>
       <r>   -10.0610    23.3170   106.1508 </r>
       <r>    -9.9631    42.5443   111.5322 </r>
       <r>    -9.8652    19.7366   113.8990 </r>
       <r>    -9.7673    10.6277   116.0739 </r>
       <r>    -9.6694    25.8524   118.8311 </r>
       <r>    -9.5715    17.5418   121.2175 </r>
       <r>    -9.4736    16.1977   123.7863 </r>
       <r>    -9.3757     0.0000   124.0000 </r>
       <r>    -9.2778     0.8029   124.0786 </r>
       <r>    -9.1799     2.1503   124.3774 </r>
       <r>    -9.0820     1.5679   124.5868 </r>
       <r>    -8.9841     1.7134   124.8011 </r>
       <r>    -8.8862     2.0362   125.0660 </r>
       <r>    -8.7883     4.8865   125.7785 </r>
       <r>    -8.6904     4.8830   126.3116 </r>
       <r>    -8.5925     6.4575   127.0656 </r>
       <r>    -8.4946     2.7017   127.3978 </r>
       <r>    -8.3967    25.0643   129.8875 </r>
       <r>    -8.2988    29.2142   132.8624 </r>
       <r>    -8.2009    14.1126   134.3818 </r>
       <r>    -8.1030    11.0755   135.9846 </r>
       <r>    -8.0051    39.1518   139.8330 </r>
       <r>    -7.9072    30.4528   143.6149 </r>
       <r>    -7.8093    16.9988   145.9999 </r>
       <r>    -7.7113    57.5271   151.6319 </r>
       <r>    -7.6134     0.0000   152.0000 </r>
       <r>    -7.5155     0.0000   152.0000 </r>
       <r>    -7.4176     0.0000   152.0000 </r>
       <r>    -7.3197     0.0000   152.0000 </r>
       <r>    -7.2218     0.0203   152.0020 </r>
       <r>    -7.1239    75.2550   159.3695 </r>
       <r>    -7.0260     0.0000   160.0000 </r>
       <r>    -6.9281     0.0000   160.0000 </r>
       <r>    -6.8302     0.0000   160.0000 </r>
       <r>    -6.7323     0.0000   160.0000 </r>
       <r>    -6.6344     0.0000   160.0000 </r>
       <r>    -6.5365     0.0000   160.0000 </r>
       <r>    -6.4386     0.0000   160.0000 </r>
       <r>    -6.3407    21.8370   162.1379 </r>
       <r>    -6.2428    31.3214   166.0000 </r>
       <r>    -6.1449     0.0000   166.0000 </r>
       <r>    -6.0470     0.0000   166.0000 </r>
       <r>    -5.9491     0.0001   166.0000 </r>
       <r>    -5.8512    61.2865   172.0000 </r>
       <r>    -5.7533     0.0000   172.0000 </r>
       <r>    -5.6554    26.4515   174.5896 </r>
       <r>    -5.5575    12.9954   176.0390 </r>
       <r>    -5.4596     9.6087   177.2742 </r>
       <r>    -5.3617    25.8376   179.8963 </r>
       <r>    -5.2638    24.7720   182.4252 </r>
       <r>    -5.1659    15.9884   186.0000 </r>
       <r>    -5.0680     0.0000   186.0000 </r>
       <r>    -4.9701     2.5616   186.2508 </r>
       <r>    -4.8722    16.5407   188.1863 </r>
       <r>    -4.7743    34.3702   191.9991 </r>
       <r>    -4.6764     0.0000   192.0000 </r>
       <r>    -4.5785     0.0000   192.0000 </r>
       <r>    -4.4806     0.0000   192.0000 </r>
       <r>    -4.3827     0.0000   192.0000 </r>
       <r>    -4.2848     0.0000   192.0000 </r>
       <r>    -4.1869     0.0000   192.0000 </r>
       <r>    -4.0890     0.0000   192.0000 </r>
       <r>    -3.9911     0.0000   192.0000 </r>
       <r>    -3.8932     0.0000   192.0000 </r>
       <r>    -3.7953     0.0000   192.0000 </r>
       <r>    -3.6974     0.0000   192.0000 </r>
       <r>    -3.5995     0.0000   192.0000 </r>
       <r>    -3.5016     0.0000   192.0000 </r>
       <r>    -3.4037     0.0000   192.0000 </r>
       <r>    -3.3058     0.0000   192.0000 </r>
       <r>    -3.2079     0.0000   192.0000 </r>
       <r>    -3.1100     0.0000   192.0000 </r>
       <r>    -3.0121     0.0000   192.0000 </r>
       <r>    -2.9142     0.0000   192.0000 </r>
       <r>    -2.8163     0.0000   192.0000 </r>
       <r>    -2.7184     0.0000   192.0000 </r>
       <r>    -2.6205     0.0000   192.0000 </r>
       <r>    -2.5226     0.0000   192.0000 </r>
       <r>    -2.4247     0.0000   192.0000 </r>
       <r>    -2.3268     0.0000   192.0000 </r>
       <r>    -2.2289    33.7421   195.3034 </r>
       <r>    -2.1310    19.4022   198.0000 </r>
       <r>    -2.0331     0.0000   198.0000 </r>
       <r>    -1.9352     0.0000   198.0000 </r>
       <r>    -1.8373     0.0000   198.0000 </r>
       <r>    -1.7394     0.0000   198.0000 </r>
       <r>    -1.6415     0.0279   198.0027 </r>
       <r>    -1.5436    41.8390   202.3635 </r>
       <r>    -1.4457    23.8288   206.0000 </r>
       <r>    -1.3478     0.0000   206.0000 </r>
       <r>    -1.2499     0.0000   206.0000 </r>
       <r>    -1.1520     0.0000   206.0000 </r>
       <r>    -1.0541     0.0000   206.0000 </r>
       <r>    -0.9562    14.5836   207.4277 </r>
       <r>    -0.8583    36.7588   212.0000 </r>
       <r>    -0.7604     0.0000   212.0000 </r>
       <r>    -0.6625     0.0000   212.0000 </r>
       <r>    -0.5646     0.0000   212.0000 </r>
       <r>    -0.4667     0.0000   212.0000 </r>
       <r>    -0.3688    27.6946   214.7113 </r>
       <r>    -0.2709    10.3497   215.8799 </r>
       <r>    -0.1730    10.3537   217.1138 </r>
       <r>    -0.0751     7.6241   217.9798 </r>
       <r>     0.0228     0.0000   218.0000 </r>
       <r>     0.1207     4.5294   218.4434 </r>
       <r>     0.2186     4.3594   218.9936 </r>
       <r>     0.3165    16.9752   220.7620 </r>
       <r>     0.4144    16.8444   222.6493 </r>
       <r>     0.5123     9.3791   223.7517 </r>
       <r>     0.6102     4.3321   224.6241 </r>
       <r>     0.7081     7.0593   225.3911 </r>
       <r>     0.8060     9.1345   226.5276 </r>
       <r>     0.9039    19.1370   228.7070 </r>
       <r>     1.0018    23.9284   231.5427 </r>
       <r>     1.0997    11.9734   233.0057 </r>
       <r>     1.1976    23.0370   235.8894 </r>
       <r>     1.2955    39.2115   240.0391 </r>
       <r>     1.3934    33.0492   245.4370 </r>
       <r>     1.4913    26.1975   248.7318 </r>
       <r>     1.5892    20.0624   251.1647 </r>
       <r>     1.6871    26.6821   254.4132 </r>
       <r>     1.7850    10.9908   255.8764 </r>
       <r>     1.8829     1.0201   256.0000 </r>
       <r>     1.9808     0.0000   256.0000 </r>
       <r>     2.0787     0.0000   256.0000 </r>
       <r>     2.1766     0.0000   256.0000 </r>
       <r>     2.2745     0.0000   256.0000 </r>
       <r>     2.3724     0.0000   256.0000 </r>
       <r>     2.4703     0.0000   256.0000 </r>
       <r>     2.5682     0.0000   256.0000 </r>
       <r>     2.6661     0.0000   256.0000 </r>
       <r>     2.7640     0.0000   256.0000 </r>
       <r>     2.8619     0.0000   256.0000 </r>
       <r>     2.9598     0.0000   256.0000 </r>
       <r>     3.0577     0.0000   256.0000 </r>
       <r>     3.1556     0.0000   256.0000 </r>
      </set>
     </set>
    </array>
   </total>
  </dos>
 </calculation>
 <structure name="finalpos" >
  <crystal>
   <varray name="basis" >
    <v>      14.60140100       0.00000000       0.00000000 </v>
    <v>      -7.30070050      12.64518420       0.00000000 </v>
    <v>       0.00000000       0.00000000      20.00000000 </v>
   </varray>
   <i name="volume">   3692.74810308 </i>
   <varray name="rec_basis" >
    <v>       0.06848658       0.03954074       0.00000000 </v>
    <v>       0.00000000       0.07908149       0.00000000 </v>
    <v>       0.00000000       0.00000000       0.05000000 </v>
   </varray>
  </crystal>
  <varray name="positions" >
   <v>       0.05667273       0.52833637       0.57405876 </v>
   <v>       0.11223990       0.55611995       0.51220823 </v>
   <v>       0.05617893       0.52808946       0.68810991 </v>
   <v>       0.05593012       0.52796506       0.45306133 </v>
   <v>       0.23023245       0.61511623       0.51281162 </v>
   <v>       0.38488377       0.76976755       0.51281162 </v>
   <v>       0.38488377       0.61511623       0.51281162 </v>
   <v>       0.44388005       0.55611995       0.51220823 </v>
   <v>       0.44388005       0.88776010       0.51220823 </v>
   <v>       0.61511623       0.23023245       0.51281162 </v>
   <v>       0.76976755       0.38488377       0.51281162 </v>
   <v>       0.61511623       0.38488377       0.51281162 </v>
   <v>       0.55611995       0.44388005       0.51220823 </v>
   <v>       0.52833637       0.47166363       0.57405876 </v>
   <v>       0.47166363       0.52833637       0.57405876 </v>
   <v>       0.47191054       0.52808946       0.68810991 </v>
   <v>       0.52808946       0.47191054       0.68810991 </v>
   <v>       0.55611995       0.11223990       0.51220823 </v>
   <v>       0.52833637       0.05667273       0.57405876 </v>
   <v>       0.47166363       0.94332727       0.57405876 </v>
   <v>       0.47191054       0.94382107       0.68810991 </v>
   <v>       0.52808946       0.05617893       0.68810991 </v>
   <v>       0.88776010       0.44388005       0.51220823 </v>
   <v>       0.94332727       0.47166363       0.57405876 </v>
   <v>       0.94382107       0.47191054       0.68810991 </v>
   <v>       0.47203494       0.52796506       0.45306133 </v>
   <v>       0.52796506       0.47203494       0.45306133 </v>
   <v>       0.47203494       0.94406988       0.45306133 </v>
   <v>       0.52796506       0.05593012       0.45306133 </v>
   <v>       0.94406988       0.47203494       0.45306133 </v>
   <v>       0.09988015       0.54994007       0.73537151 </v>
   <v>       0.09812310       0.54906155       0.40548348 </v>
   <v>       0.45005993       0.54994007       0.73537151 </v>
   <v>       0.45005993       0.90011985       0.73537151 </v>
   <v>       0.45093845       0.54906155       0.40548348 </v>
   <v>       0.45093845       0.90187690       0.40548348 </v>
   <v>       0.54994007       0.45005993       0.73537151 </v>
   <v>       0.54994007       0.09988015       0.73537151 </v>
   <v>       0.90011985       0.45005993       0.73537151 </v>
   <v>       0.54906155       0.45093845       0.40548348 </v>
   <v>       0.54906155       0.09812310       0.40548348 </v>
   <v>       0.90187690       0.45093845       0.40548348 </v>
   <v>       0.11228514       0.55614257       0.63247631 </v>
   <v>       0.27884010       0.72115990       0.51260809 </v>
   <v>       0.27884010       0.55768020       0.51260809 </v>
   <v>       0.44231980       0.72115990       0.51260809 </v>
   <v>       0.44385743       0.55614257       0.63247631 </v>
   <v>       0.44385743       0.88771486       0.63247631 </v>
   <v>       0.72115990       0.27884010       0.51260809 </v>
   <v>       0.72115990       0.44231980       0.51260809 </v>
   <v>       0.55768020       0.27884010       0.51260809 </v>
   <v>       0.55614257       0.44385743       0.63247631 </v>
   <v>       0.55614257       0.11228514       0.63247631 </v>
   <v>       0.88771486       0.44385743       0.63247631 </v>
  </varray>
 </structure>
</modeling>
