<?xml version="1.0" encoding="ISO-8859-1"?>
<modeling>
 <generator>
  <i name="program" type="string">vasp </i>
  <i name="version" type="string">5.4.4.18Apr17-6-g9f103f2a35  </i>
  <i name="subversion" type="string">(build Jun 07 2020 16:50:00) complex            parallel </i>
  <i name="platform" type="string">LinuxIFC </i>
  <i name="date" type="string">2023 03 01 </i>
  <i name="time" type="string">13:19:08 </i>
 </generator>
 <incar>
  <i type="string" name="SYSTEM">Simulation for cell shape cell volume r</i>
  <i type="int" name="ISTART">     1</i>
  <i type="string" name="PREC">high</i>
  <i type="string" name="ALGO">48</i>
  <i type="int" name="ICHARG">    11</i>
  <i type="int" name="NELM">   200</i>
  <i type="int" name="IBRION">    -1</i>
  <i name="EDIFF">      0.00001000</i>
  <i name="EDIFFG">     -0.01000000</i>
  <i type="int" name="NSW">     0</i>
  <i type="int" name="ISIF">     2</i>
  <i name="ENCUT">    500.00000000</i>
  <i name="POTIM">      0.30000000</i>
  <i type="string" name="LREAL">A</i>
  <i type="int" name="ISMEAR">     0</i>
  <i name="SIGMA">      0.01000000</i>
  <i type="int" name="NWRITE">     0</i>
  <i type="logical" name="LWAVE"> F  </i>
  <i type="logical" name="LCHARG"> F  </i>
  <v type="int" name="KPOINT_BSE">    -1     0     0     0</v>
  <i type="int" name="NELM">   200</i>
  <i type="string" name="GGA">PE</i>
 </incar>
 <structure name="primitive_cell" >
  <crystal>
   <varray name="basis" >
    <v>      32.27503577       0.03121801       0.00000000 </v>
    <v>     -16.11037347      27.93846432       0.00000000 </v>
    <v>       0.00000000       0.00000000      20.00000000 </v>
   </varray>
   <i name="volume">  18044.35737943 </i>
   <varray name="rec_basis" >
    <v>       0.03096643       0.01785641       0.00000000 </v>
    <v>      -0.00003460       0.03577300       0.00000000 </v>
    <v>       0.00000000       0.00000000       0.05000000 </v>
   </varray>
  </crystal>
  <varray name="positions" >
   <v>       0.29723807      -0.40218426      -0.44760609 </v>
   <v>       0.32776661      -0.39075718      -0.48096538 </v>
   <v>       0.35274322      -0.41552935      -0.48242724 </v>
   <v>       0.34202197      -0.35029205       0.47847427 </v>
   <v>       0.34158417      -0.44575505      -0.44855434 </v>
   <v>       0.31669076      -0.32501112       0.47985493 </v>
   <v>       0.26617230      -0.35032511       0.47843471 </v>
   <v>       0.24113702      -0.39008487       0.43630503 </v>
   <v>       0.26105215      -0.40124087       0.40403918 </v>
   <v>       0.38179282      -0.33567822       0.43641819 </v>
   <v>       0.39251420      -0.40166613       0.47534849 </v>
   <v>       0.23993870      -0.33611054      -0.48095610 </v>
   <v>       0.40611755      -0.36110273       0.43484014 </v>
   <v>       0.25895532      -0.30559102      -0.44754147 </v>
   <v>       0.39382411      -0.26751982      -0.44764888 </v>
   <v>       0.34189617      -0.27445660       0.47855711 </v>
   <v>       0.19147591      -0.41445272       0.43471177 </v>
   <v>       0.39299751      -0.30459609       0.40418564 </v>
   <v>       0.19027067      -0.36113968      -0.48242213 </v>
   <v>       0.38237560      -0.24836610      -0.48095792 </v>
   <v>       0.36168895      -0.49365725      -0.48309629 </v>
   <v>       0.16448769      -0.40091018       0.47528793 </v>
   <v>       0.17339142      -0.44406094       0.39962792 </v>
   <v>       0.41873912      -0.42838356       0.47357909 </v>
   <v>       0.43573787      -0.34965825       0.39981767 </v>
   <v>       0.39819977      -0.47558158       0.49782090 </v>
   <v>       0.32723012      -0.24922574       0.43661636 </v>
   <v>       0.17117982      -0.35002524      -0.44849630 </v>
   <v>       0.29611677      -0.26902275       0.40447390 </v>
   <v>       0.40714376      -0.19866429      -0.48244930 </v>
   <v>       0.11163379      -0.42720942       0.47352223 </v>
   <v>       0.46545598      -0.40775377       0.44750878 </v>
   <v>       0.10458999      -0.49200572       0.42977593 </v>
   <v>       0.48354383      -0.37083768       0.42989240 </v>
   <v>       0.43738597      -0.17967882      -0.44863763 </v>
   <v>       0.35265072      -0.19952354       0.43500767 </v>
   <v>       0.08569650      -0.47395183       0.44740793 </v>
   <v>       0.42313611       0.49948728       0.49687178 </v>
   <v>       0.39326710      -0.17268603       0.47537230 </v>
   <v>       0.40622474       0.46294440      -0.48398140 </v>
   <v>       0.08490959      -0.40672533       0.49782382 </v>
   <v>       0.10321854      -0.37019966      -0.48304135 </v>
   <v>       0.49002325      -0.43300517       0.44511966 </v>
   <v>       0.34115890      -0.18130024       0.40006030 </v>
   <v>       0.46955563      -0.47984425       0.47035353 </v>
   <v>       0.03595884      -0.49858715       0.44499477 </v>
   <v>      -0.47375835      -0.41587367       0.42486693 </v>
   <v>       0.42005271      -0.11979789       0.47354950 </v>
   <v>       0.03512414      -0.43173887       0.49687480 </v>
   <v>       0.01698824       0.46518483       0.42467032 </v>
   <v>       0.48534146      -0.11193389      -0.48356961 </v>
   <v>       0.00952305      -0.47817138       0.47027837 </v>
   <v>       0.47436864      -0.49638855       0.34773075 </v>
   <v>       0.46728562      -0.09335784       0.49756680 </v>
   <v>       0.49711401       0.48990337      -0.42258076 </v>
   <v>       0.49624439       0.49371879       0.47037336 </v>
   <v>       0.36252807      -0.11220457       0.43024086 </v>
   <v>       0.01544297      -0.41487089      -0.48391140 </v>
   <v>       0.39945896      -0.09354712       0.44769096 </v>
   <v>      -0.49195512       0.48031686      -0.46904382 </v>
   <v>      -0.49935185       0.49503890       0.34829636 </v>
   <v>      -0.49000160       0.48114480       0.40973323 </v>
   <v>      -0.01159865      -0.48232851       0.34785396 </v>
   <v>      -0.04352302       0.49511628       0.47019724 </v>
   <v>      -0.04834848       0.49358155      -0.42275803 </v>
   <v>       0.49227427      -0.04353658       0.49664870 </v>
   <v>       0.42477209      -0.04377602       0.44529619 </v>
   <v>      -0.49980522       0.47565626       0.30813365 </v>
   <v>      -0.06876274       0.48298355      -0.46928494 </v>
   <v>      -0.04639379       0.49139543       0.34811223 </v>
   <v>      -0.46652973       0.45590481      -0.46677679 </v>
   <v>      -0.47116430      -0.02407251      -0.48436126 </v>
   <v>      -0.06972448       0.48174872       0.40948552 </v>
   <v>       0.47163859      -0.01762278       0.47033284 </v>
   <v>      -0.46537504       0.45549571       0.41244075 </v>
   <v>       0.40768898      -0.02454112       0.42518074 </v>
   <v>      -0.45793338       0.44585547      -0.41888379 </v>
   <v>      -0.45311981       0.44297515       0.47330470 </v>
   <v>      -0.06517588       0.49223587       0.30803739 </v>
   <v>      -0.11852043       0.45764779      -0.46717858 </v>
   <v>      -0.45444486       0.44616114       0.36569798 </v>
   <v>       0.48774161       0.00360869       0.34769682 </v>
   <v>      -0.11991824       0.45721399       0.41203249 </v>
   <v>       0.49814761       0.03545290       0.47031078 </v>
   <v>      -0.13721001       0.44882721      -0.41933321 </v>
   <v>      -0.49767668       0.04014899      -0.42266884 </v>
   <v>      -0.14473683       0.44466220       0.47282755 </v>
   <v>      -0.48819342       0.06064573      -0.46913075 </v>
   <v>      -0.42656336       0.41656275       0.47420255 </v>
   <v>      -0.14008335       0.44659710       0.36522745 </v>
   <v>       0.49634841       0.03847517       0.34825118 </v>
   <v>      -0.48943756       0.06172986       0.40964811 </v>
   <v>      -0.37482454       0.46260716      -0.45252319 </v>
   <v>      -0.47178484       0.36374678       0.40144619 </v>
   <v>      -0.38645498       0.43120236      -0.48428979 </v>
   <v>      -0.44045230       0.37615301       0.43355463 </v>
   <v>      -0.48436758       0.05727671       0.30798510 </v>
   <v>      -0.20334401       0.36629720      -0.45327140 </v>
   <v>      -0.19761441       0.41825840       0.47369756 </v>
   <v>      -0.46366487       0.11043993      -0.46690933 </v>
   <v>      -0.22307249       0.37811666      -0.48483210 </v>
   <v>      -0.46362233       0.11195848       0.41231184 </v>
   <v>      -0.20513341       0.46369752       0.40111216 </v>
   <v>      -0.45339640       0.12908655      -0.41904839 </v>
   <v>      -0.22406012       0.43235125       0.43321961 </v>
   <v>      -0.36098961       0.40684453      -0.48368508 </v>
   <v>      -0.41545518       0.35132678       0.43415125 </v>
   <v>      -0.45085613       0.13673175       0.47315882 </v>
   <v>      -0.45434404       0.13218392       0.36555126 </v>
   <v>      -0.32969832       0.41895348      -0.45166240 </v>
   <v>      -0.42695086       0.31982792       0.40269255 </v>
   <v>      -0.37521313       0.36650530       0.47545749 </v>
   <v>      -0.27280482       0.35285002      -0.48402976 </v>
   <v>      -0.27380410       0.40753500       0.43398220 </v>
   <v>      -0.42654462       0.28419791      -0.45140294 </v>
   <v>      -0.29196529       0.32153688      -0.45201751 </v>
   <v>      -0.42436501       0.18965311       0.47407996 </v>
   <v>      -0.47019776       0.19550501      -0.45235755 </v>
   <v>      -0.29885411       0.36728190       0.47530317 </v>
   <v>      -0.37173000       0.19707446       0.40106625 </v>
   <v>      -0.29373207       0.41919099       0.40262628 </v>
   <v>      -0.34944282       0.34160812       0.47582503 </v>
   <v>      -0.43887261       0.21519125      -0.48421781 </v>
   <v>      -0.41451085       0.26496550      -0.48355479 </v>
   <v>      -0.38404923       0.21605352       0.43332445 </v>
   <v>      -0.32778655       0.28573912       0.40242092 </v>
   <v>      -0.37428360       0.29097224       0.47544979 </v>
   <v>      -0.35920628       0.26583785       0.43398187 </v>
  </varray>
 </structure>
 <varray name="primitive_index" >
  <v type="int" >        1 </v>
  <v type="int" >       58 </v>
  <v type="int" >       59 </v>
  <v type="int" >       57 </v>
  <v type="int" >        2 </v>
  <v type="int" >       52 </v>
  <v type="int" >       70 </v>
  <v type="int" >       75 </v>
  <v type="int" >       13 </v>
  <v type="int" >       62 </v>
  <v type="int" >       60 </v>
  <v type="int" >       78 </v>
  <v type="int" >       61 </v>
  <v type="int" >       15 </v>
  <v type="int" >       11 </v>
  <v type="int" >       69 </v>
  <v type="int" >       76 </v>
  <v type="int" >        3 </v>
  <v type="int" >       77 </v>
  <v type="int" >       71 </v>
  <v type="int" >        8 </v>
  <v type="int" >       80 </v>
  <v type="int" >       14 </v>
  <v type="int" >       66 </v>
  <v type="int" >        4 </v>
  <v type="int" >       67 </v>
  <v type="int" >       74 </v>
  <v type="int" >       19 </v>
  <v type="int" >       12 </v>
  <v type="int" >       72 </v>
  <v type="int" >       92 </v>
  <v type="int" >       65 </v>
  <v type="int" >       16 </v>
  <v type="int" >        6 </v>
  <v type="int" >       10 </v>
  <v type="int" >       73 </v>
  <v type="int" >       91 </v>
  <v type="int" >       68 </v>
  <v type="int" >       79 </v>
  <v type="int" >        9 </v>
  <v type="int" >       97 </v>
  <v type="int" >       28 </v>
  <v type="int" >       64 </v>
  <v type="int" >       18 </v>
  <v type="int" >       63 </v>
  <v type="int" >       90 </v>
  <v type="int" >        5 </v>
  <v type="int" >       86 </v>
  <v type="int" >       98 </v>
  <v type="int" >       23 </v>
  <v type="int" >       17 </v>
  <v type="int" >       89 </v>
  <v type="int" >        7 </v>
  <v type="int" >       94 </v>
  <v type="int" >       50 </v>
  <v type="int" >      124 </v>
  <v type="int" >       20 </v>
  <v type="int" >       49 </v>
  <v type="int" >       85 </v>
  <v type="int" >      127 </v>
  <v type="int" >       56 </v>
  <v type="int" >      123 </v>
  <v type="int" >       24 </v>
  <v type="int" >       88 </v>
  <v type="int" >       27 </v>
  <v type="int" >       95 </v>
  <v type="int" >       84 </v>
  <v type="int" >       46 </v>
  <v type="int" >       96 </v>
  <v type="int" >       54 </v>
  <v type="int" >      128 </v>
  <v type="int" >       26 </v>
  <v type="int" >       87 </v>
  <v type="int" >       83 </v>
  <v type="int" >      122 </v>
  <v type="int" >       42 </v>
  <v type="int" >       51 </v>
  <v type="int" >      121 </v>
  <v type="int" >       29 </v>
  <v type="int" >      126 </v>
  <v type="int" >       45 </v>
  <v type="int" >       22 </v>
  <v type="int" >      120 </v>
  <v type="int" >       82 </v>
  <v type="int" >       48 </v>
  <v type="int" >       25 </v>
  <v type="int" >      119 </v>
  <v type="int" >       93 </v>
  <v type="int" >      104 </v>
  <v type="int" >       44 </v>
  <v type="int" >       53 </v>
  <v type="int" >       81 </v>
  <v type="int" >       41 </v>
  <v type="int" >       35 </v>
  <v type="int" >      105 </v>
  <v type="int" >      103 </v>
  <v type="int" >       21 </v>
  <v type="int" >       37 </v>
  <v type="int" >      114 </v>
  <v type="int" >      125 </v>
  <v type="int" >      113 </v>
  <v type="int" >      118 </v>
  <v type="int" >       38 </v>
  <v type="int" >       47 </v>
  <v type="int" >      115 </v>
  <v type="int" >      106 </v>
  <v type="int" >      102 </v>
  <v type="int" >      117 </v>
  <v type="int" >       43 </v>
  <v type="int" >       40 </v>
  <v type="int" >       34 </v>
  <v type="int" >      101 </v>
  <v type="int" >      112 </v>
  <v type="int" >      116 </v>
  <v type="int" >       32 </v>
  <v type="int" >       36 </v>
  <v type="int" >      109 </v>
  <v type="int" >       33 </v>
  <v type="int" >      100 </v>
  <v type="int" >       30 </v>
  <v type="int" >       39 </v>
  <v type="int" >       55 </v>
  <v type="int" >      110 </v>
  <v type="int" >      111 </v>
  <v type="int" >      108 </v>
  <v type="int" >       31 </v>
  <v type="int" >       99 </v>
  <v type="int" >      107 </v>
 </varray>
 <kpoints>
  <generation param="listgenerated">
   <i name="divisions" type="int">      20 </i>
   <v>       0.00000000       0.00000000       0.00000000 </v>
   <v>       0.50000000       0.00000000       0.00000000 </v>
   <v>       0.33333333       0.33333333       0.00000000 </v>
   <v>       0.00000000       0.00000000       0.00000000 </v>
  </generation>
  <varray name="kpointlist" >
   <v>       0.00000000       0.00000000       0.00000000 </v>
   <v>       0.02631579       0.00000000       0.00000000 </v>
   <v>       0.05263158       0.00000000       0.00000000 </v>
   <v>       0.07894737       0.00000000       0.00000000 </v>
   <v>       0.10526316       0.00000000       0.00000000 </v>
   <v>       0.13157895       0.00000000       0.00000000 </v>
   <v>       0.15789474       0.00000000       0.00000000 </v>
   <v>       0.18421053       0.00000000       0.00000000 </v>
   <v>       0.21052632       0.00000000       0.00000000 </v>
   <v>       0.23684211       0.00000000       0.00000000 </v>
   <v>       0.26315789       0.00000000       0.00000000 </v>
   <v>       0.28947368       0.00000000       0.00000000 </v>
   <v>       0.31578947       0.00000000       0.00000000 </v>
   <v>       0.34210526       0.00000000       0.00000000 </v>
   <v>       0.36842105       0.00000000       0.00000000 </v>
   <v>       0.39473684       0.00000000       0.00000000 </v>
   <v>       0.42105263       0.00000000       0.00000000 </v>
   <v>       0.44736842       0.00000000       0.00000000 </v>
   <v>       0.47368421       0.00000000       0.00000000 </v>
   <v>       0.50000000       0.00000000       0.00000000 </v>
   <v>       0.50000000       0.00000000       0.00000000 </v>
   <v>       0.49122807       0.01754386       0.00000000 </v>
   <v>       0.48245614       0.03508772       0.00000000 </v>
   <v>       0.47368421       0.05263158       0.00000000 </v>
   <v>       0.46491228       0.07017544       0.00000000 </v>
   <v>       0.45614035       0.08771930       0.00000000 </v>
   <v>       0.44736842       0.10526316       0.00000000 </v>
   <v>       0.43859649       0.12280702       0.00000000 </v>
   <v>       0.42982456       0.14035088       0.00000000 </v>
   <v>       0.42105263       0.15789474       0.00000000 </v>
   <v>       0.41228070       0.17543860       0.00000000 </v>
   <v>       0.40350877       0.19298246       0.00000000 </v>
   <v>       0.39473684       0.21052632       0.00000000 </v>
   <v>       0.38596491       0.22807018       0.00000000 </v>
   <v>       0.37719298       0.24561404       0.00000000 </v>
   <v>       0.36842105       0.26315789       0.00000000 </v>
   <v>       0.35964912       0.28070175       0.00000000 </v>
   <v>       0.35087719       0.29824561       0.00000000 </v>
   <v>       0.34210526       0.31578947       0.00000000 </v>
   <v>       0.33333333       0.33333333       0.00000000 </v>
   <v>       0.33333333       0.33333333       0.00000000 </v>
   <v>       0.31578947       0.31578947       0.00000000 </v>
   <v>       0.29824561       0.29824561       0.00000000 </v>
   <v>       0.28070175       0.28070175       0.00000000 </v>
   <v>       0.26315789       0.26315789       0.00000000 </v>
   <v>       0.24561404       0.24561404       0.00000000 </v>
   <v>       0.22807018       0.22807018       0.00000000 </v>
   <v>       0.21052632       0.21052632       0.00000000 </v>
   <v>       0.19298246       0.19298246       0.00000000 </v>
   <v>       0.17543860       0.17543860       0.00000000 </v>
   <v>       0.15789474       0.15789474       0.00000000 </v>
   <v>       0.14035088       0.14035088       0.00000000 </v>
   <v>       0.12280702       0.12280702       0.00000000 </v>
   <v>       0.10526316       0.10526316       0.00000000 </v>
   <v>       0.08771930       0.08771930       0.00000000 </v>
   <v>       0.07017544       0.07017544       0.00000000 </v>
   <v>       0.05263158       0.05263158       0.00000000 </v>
   <v>       0.03508772       0.03508772       0.00000000 </v>
   <v>       0.01754386       0.01754386       0.00000000 </v>
   <v>       0.00000000       0.00000000       0.00000000 </v>
  </varray>
  <varray name="weights" >
   <v>       0.01666667 </v>
   <v>       0.01666667 </v>
   <v>       0.01666667 </v>
   <v>       0.01666667 </v>
   <v>       0.01666667 </v>
   <v>       0.01666667 </v>
   <v>       0.01666667 </v>
   <v>       0.01666667 </v>
   <v>       0.01666667 </v>
   <v>       0.01666667 </v>
   <v>       0.01666667 </v>
   <v>       0.01666667 </v>
   <v>       0.01666667 </v>
   <v>       0.01666667 </v>
   <v>       0.01666667 </v>
   <v>       0.01666667 </v>
   <v>       0.01666667 </v>
   <v>       0.01666667 </v>
   <v>       0.01666667 </v>
   <v>       0.01666667 </v>
   <v>       0.01666667 </v>
   <v>       0.01666667 </v>
   <v>       0.01666667 </v>
   <v>       0.01666667 </v>
   <v>       0.01666667 </v>
   <v>       0.01666667 </v>
   <v>       0.01666667 </v>
   <v>       0.01666667 </v>
   <v>       0.01666667 </v>
   <v>       0.01666667 </v>
   <v>       0.01666667 </v>
   <v>       0.01666667 </v>
   <v>       0.01666667 </v>
   <v>       0.01666667 </v>
   <v>       0.01666667 </v>
   <v>       0.01666667 </v>
   <v>       0.01666667 </v>
   <v>       0.01666667 </v>
   <v>       0.01666667 </v>
   <v>       0.01666667 </v>
   <v>       0.01666667 </v>
   <v>       0.01666667 </v>
   <v>       0.01666667 </v>
   <v>       0.01666667 </v>
   <v>       0.01666667 </v>
   <v>       0.01666667 </v>
   <v>       0.01666667 </v>
   <v>       0.01666667 </v>
   <v>       0.01666667 </v>
   <v>       0.01666667 </v>
   <v>       0.01666667 </v>
   <v>       0.01666667 </v>
   <v>       0.01666667 </v>
   <v>       0.01666667 </v>
   <v>       0.01666667 </v>
   <v>       0.01666667 </v>
   <v>       0.01666667 </v>
   <v>       0.01666667 </v>
   <v>       0.01666667 </v>
   <v>       0.01666667 </v>
  </varray>
 </kpoints>
 <parameters>
  <separator name="general" >
   <i type="string" name="SYSTEM">Simulation for cell shape cell volume r</i>
   <i type="logical" name="LCOMPAT"> F  </i>
  </separator>
  <separator name="electronic" >
   <i type="string" name="PREC">high</i>
   <i name="ENMAX">    500.00000000</i>
   <i name="ENAUG">    644.87300000</i>
   <i name="EDIFF">      0.00001000</i>
   <i type="int" name="IALGO">    38</i>
   <i type="int" name="IWAVPR">    10</i>
   <i type="int" name="NBANDS">   256</i>
   <i name="NELECT">    364.00000000</i>
   <i type="int" name="TURBO">     0</i>
   <i type="int" name="IRESTART">     0</i>
   <i type="int" name="NREBOOT">     0</i>
   <i type="int" name="NMIN">     0</i>
   <i name="EREF">      0.00000000</i>
   <separator name="electronic smearing" >
    <i type="int" name="ISMEAR">     0</i>
    <i name="SIGMA">      0.01000000</i>
    <i name="KSPACING">      0.50000000</i>
    <i type="logical" name="KGAMMA"> T  </i>
   </separator>
   <separator name="electronic projectors" >
    <i type="logical" name="LREAL"> T  </i>
    <v name="ROPT">     -0.00040000     -0.00040000     -0.00040000</v>
    <i type="int" name="LMAXPAW">  -100</i>
    <i type="int" name="LMAXMIX">     2</i>
    <i type="logical" name="NLSPLINE"> F  </i>
   </separator>
   <separator name="electronic startup" >
    <i type="int" name="ISTART">     1</i>
    <i type="int" name="ICHARG">    11</i>
    <i type="int" name="INIWAV">     1</i>
   </separator>
   <separator name="electronic spin" >
    <i type="int" name="ISPIN">     1</i>
    <i type="logical" name="LNONCOLLINEAR"> F  </i>
    <v name="MAGMOM">      1.00000000      1.00000000      1.00000000      1.00000000      1.00000000      1.00000000      1.00000000      1.00000000      1.00000000      1.00000000      1.00000000      1.00000000      1.00000000      1.00000000      1.00000000      1.00000000      1.00000000      1.00000000      1.00000000      1.00000000
      1.00000000      1.00000000      1.00000000      1.00000000      1.00000000      1.00000000      1.00000000      1.00000000      1.00000000      1.00000000      1.00000000      1.00000000      1.00000000      1.00000000      1.00000000      1.00000000      1.00000000      1.00000000      1.00000000      1.00000000
      1.00000000      1.00000000      1.00000000      1.00000000      1.00000000      1.00000000      1.00000000      1.00000000      1.00000000      1.00000000      1.00000000      1.00000000      1.00000000      1.00000000      1.00000000      1.00000000      1.00000000      1.00000000      1.00000000      1.00000000
      1.00000000      1.00000000      1.00000000      1.00000000      1.00000000      1.00000000      1.00000000      1.00000000      1.00000000      1.00000000      1.00000000      1.00000000      1.00000000      1.00000000      1.00000000      1.00000000      1.00000000      1.00000000      1.00000000      1.00000000
      1.00000000      1.00000000      1.00000000      1.00000000      1.00000000      1.00000000      1.00000000      1.00000000      1.00000000      1.00000000      1.00000000      1.00000000      1.00000000      1.00000000      1.00000000      1.00000000      1.00000000      1.00000000      1.00000000      1.00000000
      1.00000000      1.00000000      1.00000000      1.00000000      1.00000000      1.00000000      1.00000000      1.00000000      1.00000000      1.00000000      1.00000000      1.00000000      1.00000000      1.00000000      1.00000000      1.00000000      1.00000000      1.00000000      1.00000000      1.00000000
      1.00000000      1.00000000      1.00000000      1.00000000      1.00000000      1.00000000      1.00000000      1.00000000</v>
    <i name="NUPDOWN">     -1.00000000</i>
    <i type="logical" name="LSORBIT"> F  </i>
    <v name="SAXIS">      0.00000000      0.00000000      1.00000000</v>
    <i type="logical" name="LSPIRAL"> F  </i>
    <v name="QSPIRAL">      0.00000000      0.00000000      0.00000000</v>
    <i type="logical" name="LZEROZ"> F  </i>
   </separator>
   <separator name="electronic exchange-correlation" >
    <i type="logical" name="LASPH"> F  </i>
    <i type="logical" name="LMETAGGA"> F  </i>
   </separator>
   <separator name="electronic convergence" >
    <i type="int" name="NELM">   200</i>
    <i type="int" name="NELMDL">     0</i>
    <i type="int" name="NELMIN">     2</i>
    <i name="ENINI">    500.00000000</i>
    <separator name="electronic convergence detail" >
     <i type="logical" name="LDIAG"> T  </i>
     <i type="logical" name="LSUBROT"> F  </i>
     <i name="WEIMIN">      0.00000000</i>
     <i name="EBREAK">      0.00000001</i>
     <i name="DEPER">      0.30000000</i>
     <i type="int" name="NRMM">     4</i>
     <i name="TIME">      0.40000000</i>
    </separator>
   </separator>
   <separator name="electronic mixer" >
    <i name="AMIX">      0.40000000</i>
    <i name="BMIX">      1.00000000</i>
    <i name="AMIN">      0.10000000</i>
    <i name="AMIX_MAG">      1.60000000</i>
    <i name="BMIX_MAG">      1.00000000</i>
    <separator name="electronic mixer details" >
     <i type="int" name="IMIX">     4</i>
     <i type="logical" name="MIXFIRST"> F  </i>
     <i type="int" name="MAXMIX">   -45</i>
     <i name="WC">    100.00000000</i>
     <i type="int" name="INIMIX">     1</i>
     <i type="int" name="MIXPRE">     1</i>
     <i type="int" name="MREMOVE">     5</i>
    </separator>
   </separator>
   <separator name="electronic dipolcorrection" >
    <i type="logical" name="LDIPOL"> F  </i>
    <i type="logical" name="LMONO"> F  </i>
    <i type="int" name="IDIPOL">     0</i>
    <i name="EPSILON">      1.00000000</i>
    <v name="DIPOL">   -100.00000000   -100.00000000   -100.00000000</v>
    <i name="EFIELD">      0.00000000</i>
   </separator>
  </separator>
  <separator name="grids" >
   <i type="int" name="NGX">   240</i>
   <i type="int" name="NGY">   240</i>
   <i type="int" name="NGZ">   150</i>
   <i type="int" name="NGXF">   360</i>
   <i type="int" name="NGYF">   360</i>
   <i type="int" name="NGZF">   224</i>
   <i type="logical" name="ADDGRID"> F  </i>
  </separator>
  <separator name="ionic" >
   <i type="int" name="NSW">     0</i>
   <i type="int" name="IBRION">    -1</i>
   <i type="int" name="MDALGO">     0</i>
   <i type="int" name="ISIF">     2</i>
   <i name="PSTRESS">      0.00000000</i>
   <i name="EDIFFG">     -0.01000000</i>
   <i type="int" name="NFREE">     0</i>
   <i name="POTIM">      0.30000000</i>
   <i name="SMASS">     -3.00000000</i>
   <i name="SCALEE">      1.00000000</i>
  </separator>
  <separator name="ionic md" >
   <i name="TEBEG">      0.00010000</i>
   <i name="TEEND">      0.00010000</i>
   <i type="int" name="NBLOCK">     1</i>
   <i type="int" name="KBLOCK">     1</i>
   <i type="int" name="NPACO">   256</i>
   <i name="APACO">     16.00000000</i>
  </separator>
  <separator name="symmetry" >
   <i type="int" name="ISYM">     2</i>
   <i name="SYMPREC">      0.00001000</i>
  </separator>
  <separator name="dos" >
   <i type="int" name="LORBIT">     0</i>
   <v name="RWIGS">     -1.00000000     -1.00000000     -1.00000000</v>
   <i type="int" name="NEDOS">   301</i>
   <i name="EMIN">     10.00000000</i>
   <i name="EMAX">    -10.00000000</i>
   <i name="EFERMI">      0.00000000</i>
  </separator>
  <separator name="writing" >
   <i type="int" name="NWRITE">     0</i>
   <i type="logical" name="LWAVE"> F  </i>
   <i type="logical" name="LDOWNSAMPLE"> F  </i>
   <i type="logical" name="LCHARG"> F  </i>
   <i type="logical" name="LPARD"> F  </i>
   <i type="logical" name="LVTOT"> F  </i>
   <i type="logical" name="LVHAR"> F  </i>
   <i type="logical" name="LELF"> F  </i>
   <i type="logical" name="LOPTICS"> F  </i>
   <v name="STM">      0.00000000      0.00000000      0.00000000      0.00000000      0.00000000      0.00000000      0.00000000</v>
  </separator>
  <separator name="performance" >
   <i type="int" name="NPAR">    16</i>
   <i type="int" name="NSIM">     4</i>
   <i type="int" name="NBLK">    -1</i>
   <i type="logical" name="LPLANE"> T  </i>
   <i type="logical" name="LSCALAPACK"> T  </i>
   <i type="logical" name="LSCAAWARE"> F  </i>
   <i type="logical" name="LSCALU"> F  </i>
   <i type="logical" name="LASYNC"> F  </i>
   <i type="logical" name="LORBITALREAL"> F  </i>
  </separator>
  <separator name="miscellaneous" >
   <i type="int" name="IDIOT">     3</i>
   <i type="int" name="ISPECIAL">     0</i>
   <i type="logical" name="LMUSIC"> F  </i>
   <v name="POMASS">      1.00000000     14.00100000     12.01100000</v>
   <v name="DARWINR">      0.00000000      0.00000000      0.00000000</v>
   <v name="DARWINV">      1.00000000      1.00000000      1.00000000</v>
   <i type="logical" name="LCORR"> T  </i>
  </separator>
  <i type="logical" name="GGA_COMPAT"> T  </i>
  <i type="logical" name="LBERRY"> F  </i>
  <i type="int" name="ICORELEVEL">     0</i>
  <i type="logical" name="LDAU"> F  </i>
  <i type="int" name="I_CONSTRAINED_M">     0</i>
  <separator name="electronic exchange-correlation" >
   <i type="string" name="GGA">PE</i>
   <i type="int" name="VOSKOWN">     0</i>
   <i type="logical" name="LHFCALC"> F  </i>
   <i type="string" name="PRECFOCK"></i>
   <i type="logical" name="LSYMGRAD"> F  </i>
   <i type="logical" name="LHFONE"> F  </i>
   <i type="logical" name="LRHFCALC"> F  </i>
   <i type="logical" name="LTHOMAS"> F  </i>
   <i type="logical" name="LMODELHF"> F  </i>
   <i name="ENCUT4O">     -1.00000000</i>
   <i type="int" name="EXXOEP">     0</i>
   <i type="int" name="FOURORBIT">     0</i>
   <i name="AEXX">      0.00000000</i>
   <i name="HFALPHA">      0.00000000</i>
   <i name="MCALPHA">      0.00000000</i>
   <i name="ALDAX">      1.00000000</i>
   <i name="AGGAX">      1.00000000</i>
   <i name="ALDAC">      1.00000000</i>
   <i name="AGGAC">      1.00000000</i>
   <i type="int" name="NKREDX">     1</i>
   <i type="int" name="NKREDY">     1</i>
   <i type="int" name="NKREDZ">     1</i>
   <i type="logical" name="SHIFTRED"> F  </i>
   <i type="logical" name="ODDONLY"> F  </i>
   <i type="logical" name="EVENONLY"> F  </i>
   <i type="int" name="LMAXFOCK">     0</i>
   <i type="int" name="NMAXFOCKAE">     0</i>
   <i type="logical" name="LFOCKAEDFT"> F  </i>
   <i name="HFSCREEN">      0.00000000</i>
   <i name="HFSCREENC">      0.00000000</i>
   <i type="int" name="NBANDSGWLOW">     0</i>
  </separator>
  <separator name="vdW DFT" >
   <i type="logical" name="LUSE_VDW"> F  </i>
   <i name="Zab_VDW">     -0.84910000</i>
   <i name="PARAM1">      0.12340000</i>
   <i name="PARAM2">      1.00000000</i>
   <i name="PARAM3">      0.00000000</i>
  </separator>
  <separator name="model GW" >
   <i type="int" name="MODEL_GW">     0</i>
   <i name="MODEL_EPS0">     84.58292522</i>
   <i name="MODEL_ALPHA">      1.00000000</i>
  </separator>
  <separator name="linear response parameters" >
   <i type="logical" name="LEPSILON"> F  </i>
   <i type="logical" name="LRPA"> F  </i>
   <i type="logical" name="LNABLA"> F  </i>
   <i type="logical" name="LVEL"> F  </i>
   <i type="int" name="KINTER">     0</i>
   <i name="CSHIFT">      0.10000000</i>
   <i name="OMEGAMAX">     -1.00000000</i>
   <i name="DEG_THRESHOLD">      0.00200000</i>
   <i name="RTIME">     -0.10000000</i>
   <i name="WPLASMAI">      0.00000000</i>
   <v name="DFIELD">      0.00000000      0.00000000      0.00000000</v>
   <v name="WPLASMA">      0.00000000      0.00000000      0.00000000      0.00000000      0.00000000      0.00000000      0.00000000      0.00000000      0.00000000</v>
  </separator>
  <separator name="orbital magnetization" >
   <i type="logical" name="NUCIND"> F  </i>
   <v name="MAGPOS">      0.00000000      0.00000000      0.00000000</v>
   <i type="logical" name="LNICSALL"> T  </i>
   <i type="logical" name="ORBITALMAG"> F  </i>
   <i type="logical" name="LMAGBLOCH"> F  </i>
   <i type="logical" name="LCHIMAG"> F  </i>
   <i type="logical" name="LGAUGE"> T  </i>
   <i type="int" name="MAGATOM">     0</i>
   <v name="MAGDIPOL">      0.00000000      0.00000000      0.00000000</v>
   <v name="AVECCONST">      0.00000000      0.00000000      0.00000000</v>
  </separator>
  <separator name="response functions" >
   <i type="logical" name="LADDER"> F  </i>
   <i type="logical" name="LRPAFORCE"> F  </i>
   <i type="logical" name="LFXC"> F  </i>
   <i type="logical" name="LHARTREE"> T  </i>
   <i type="int" name="IBSE">     0</i>
   <v type="int" name="KPOINT">    -1     0     0     0</v>
   <i type="logical" name="LTCTE"> F  </i>
   <i type="logical" name="LTETE"> F  </i>
   <i type="logical" name="LTRIPLET"> F  </i>
   <i type="logical" name="LFXCEPS"> F  </i>
   <i type="logical" name="LFXHEG"> F  </i>
   <i type="int" name="NATURALO">     2</i>
   <i type="logical" name="L2ORDER"> F  </i>
   <i type="logical" name="LMP2LT"> F  </i>
   <i type="logical" name="LUSEW"> F  </i>
   <i name="ENCUTGW">     -2.00000000</i>
   <i name="ENCUTGWSOFT">     -2.00000000</i>
   <i name="ENCUTLF">     -1.00000000</i>
   <i type="int" name="LMAXMP2">    -1</i>
   <i name="SCISSOR">      0.00000000</i>
   <i type="int" name="NOMEGA">     0</i>
   <i type="int" name="NOMEGAR">     0</i>
   <i type="int" name="NBANDSGW">    -1</i>
   <i type="int" name="NBANDSO">    -1</i>
   <i type="int" name="NBANDSV">    -1</i>
   <i type="int" name="NELM">   200</i>
   <i type="int" name="NELMHF">     1</i>
   <i type="int" name="DIM">     3</i>
   <i type="int" name="ANTIRES">     0</i>
   <i name="OMEGAMAX">    -30.00000000</i>
   <i name="OMEGAMIN">    -30.00000000</i>
   <i name="OMEGATL">   -200.00000000</i>
   <i type="int" name="OMEGAGRID">   140</i>
   <i name="CSHIFT">     -0.10000000</i>
   <i type="logical" name="SELFENERGY"> F  </i>
   <i type="logical" name="LSPECTRAL"> F  </i>
   <i type="logical" name="LSPECTRALGW"> F  </i>
   <i type="logical" name="LSINGLES"> F  </i>
   <i type="logical" name="LFERMIGW"> F  </i>
   <i type="logical" name="ODDONLYGW"> F  </i>
   <i type="logical" name="EVENONLYGW"> F  </i>
   <i type="int" name="NKREDLFX">     1</i>
   <i type="int" name="NKREDLFY">     1</i>
   <i type="int" name="NKREDLFZ">     1</i>
   <i type="int" name="MAXMEM">  2800</i>
   <i type="int" name="TELESCOPE">     0</i>
   <i type="int" name="TAUPAR">     1</i>
   <i type="int" name="OMEGAPAR">    -1</i>
   <i name="LAMBDA">      1.00000000</i>
  </separator>
  <separator name="External order field" >
   <i name="OFIELD_KAPPA">      0.00000000</i>
   <v name="OFIELD_K">      0.00000000      0.00000000      0.00000000</v>
   <i name="OFIELD_Q6_NEAR">      0.00000000</i>
   <i name="OFIELD_Q6_FAR">      0.00000000</i>
   <i name="OFIELD_A">      0.00000000</i>
  </separator>
  <separator name="solvation model" >
   <i type="logical" name="LSOL"> F  </i>
  </separator>
 </parameters>
 <atominfo>
  <atoms>     128 </atoms>
  <types>       3 </types>
  <array name="atoms" >
   <dimension dim="1">ion</dimension>
   <field type="string">element</field>
   <field type="int">atomtype</field>
   <set>
    <rc><c>H </c><c>   1</c></rc>
    <rc><c>H </c><c>   1</c></rc>
    <rc><c>H </c><c>   1</c></rc>
    <rc><c>H </c><c>   1</c></rc>
    <rc><c>H </c><c>   1</c></rc>
    <rc><c>H </c><c>   1</c></rc>
    <rc><c>H </c><c>   1</c></rc>
    <rc><c>H </c><c>   1</c></rc>
    <rc><c>H </c><c>   1</c></rc>
    <rc><c>H </c><c>   1</c></rc>
    <rc><c>H </c><c>   1</c></rc>
    <rc><c>H </c><c>   1</c></rc>
    <rc><c>H </c><c>   1</c></rc>
    <rc><c>H </c><c>   1</c></rc>
    <rc><c>H </c><c>   1</c></rc>
    <rc><c>H </c><c>   1</c></rc>
    <rc><c>H </c><c>   1</c></rc>
    <rc><c>H </c><c>   1</c></rc>
    <rc><c>H </c><c>   1</c></rc>
    <rc><c>H </c><c>   1</c></rc>
    <rc><c>H </c><c>   1</c></rc>
    <rc><c>H </c><c>   1</c></rc>
    <rc><c>H </c><c>   1</c></rc>
    <rc><c>H </c><c>   1</c></rc>
    <rc><c>H </c><c>   1</c></rc>
    <rc><c>H </c><c>   1</c></rc>
    <rc><c>H </c><c>   1</c></rc>
    <rc><c>H </c><c>   1</c></rc>
    <rc><c>H </c><c>   1</c></rc>
    <rc><c>H </c><c>   1</c></rc>
    <rc><c>H </c><c>   1</c></rc>
    <rc><c>H </c><c>   1</c></rc>
    <rc><c>H </c><c>   1</c></rc>
    <rc><c>H </c><c>   1</c></rc>
    <rc><c>H </c><c>   1</c></rc>
    <rc><c>H </c><c>   1</c></rc>
    <rc><c>H </c><c>   1</c></rc>
    <rc><c>H </c><c>   1</c></rc>
    <rc><c>H </c><c>   1</c></rc>
    <rc><c>H </c><c>   1</c></rc>
    <rc><c>H </c><c>   1</c></rc>
    <rc><c>H </c><c>   1</c></rc>
    <rc><c>H </c><c>   1</c></rc>
    <rc><c>H </c><c>   1</c></rc>
    <rc><c>H </c><c>   1</c></rc>
    <rc><c>H </c><c>   1</c></rc>
    <rc><c>H </c><c>   1</c></rc>
    <rc><c>H </c><c>   1</c></rc>
    <rc><c>H </c><c>   1</c></rc>
    <rc><c>H </c><c>   1</c></rc>
    <rc><c>H </c><c>   1</c></rc>
    <rc><c>N </c><c>   2</c></rc>
    <rc><c>N </c><c>   2</c></rc>
    <rc><c>N </c><c>   2</c></rc>
    <rc><c>N </c><c>   2</c></rc>
    <rc><c>N </c><c>   2</c></rc>
    <rc><c>C </c><c>   3</c></rc>
    <rc><c>C </c><c>   3</c></rc>
    <rc><c>C </c><c>   3</c></rc>
    <rc><c>C </c><c>   3</c></rc>
    <rc><c>C </c><c>   3</c></rc>
    <rc><c>C </c><c>   3</c></rc>
    <rc><c>C </c><c>   3</c></rc>
    <rc><c>C </c><c>   3</c></rc>
    <rc><c>C </c><c>   3</c></rc>
    <rc><c>C </c><c>   3</c></rc>
    <rc><c>C </c><c>   3</c></rc>
    <rc><c>C </c><c>   3</c></rc>
    <rc><c>C </c><c>   3</c></rc>
    <rc><c>C </c><c>   3</c></rc>
    <rc><c>C </c><c>   3</c></rc>
    <rc><c>C </c><c>   3</c></rc>
    <rc><c>C </c><c>   3</c></rc>
    <rc><c>C </c><c>   3</c></rc>
    <rc><c>C </c><c>   3</c></rc>
    <rc><c>C </c><c>   3</c></rc>
    <rc><c>C </c><c>   3</c></rc>
    <rc><c>C </c><c>   3</c></rc>
    <rc><c>C </c><c>   3</c></rc>
    <rc><c>C </c><c>   3</c></rc>
    <rc><c>C </c><c>   3</c></rc>
    <rc><c>C </c><c>   3</c></rc>
    <rc><c>C </c><c>   3</c></rc>
    <rc><c>C </c><c>   3</c></rc>
    <rc><c>C </c><c>   3</c></rc>
    <rc><c>C </c><c>   3</c></rc>
    <rc><c>C </c><c>   3</c></rc>
    <rc><c>C </c><c>   3</c></rc>
    <rc><c>C </c><c>   3</c></rc>
    <rc><c>C </c><c>   3</c></rc>
    <rc><c>C </c><c>   3</c></rc>
    <rc><c>C </c><c>   3</c></rc>
    <rc><c>C </c><c>   3</c></rc>
    <rc><c>C </c><c>   3</c></rc>
    <rc><c>C </c><c>   3</c></rc>
    <rc><c>C </c><c>   3</c></rc>
    <rc><c>C </c><c>   3</c></rc>
    <rc><c>C </c><c>   3</c></rc>
    <rc><c>C </c><c>   3</c></rc>
    <rc><c>C </c><c>   3</c></rc>
    <rc><c>C </c><c>   3</c></rc>
    <rc><c>C </c><c>   3</c></rc>
    <rc><c>C </c><c>   3</c></rc>
    <rc><c>C </c><c>   3</c></rc>
    <rc><c>C </c><c>   3</c></rc>
    <rc><c>C </c><c>   3</c></rc>
    <rc><c>C </c><c>   3</c></rc>
    <rc><c>C </c><c>   3</c></rc>
    <rc><c>C </c><c>   3</c></rc>
    <rc><c>C </c><c>   3</c></rc>
    <rc><c>C </c><c>   3</c></rc>
    <rc><c>C </c><c>   3</c></rc>
    <rc><c>C </c><c>   3</c></rc>
    <rc><c>C </c><c>   3</c></rc>
    <rc><c>C </c><c>   3</c></rc>
    <rc><c>C </c><c>   3</c></rc>
    <rc><c>C </c><c>   3</c></rc>
    <rc><c>C </c><c>   3</c></rc>
    <rc><c>C </c><c>   3</c></rc>
    <rc><c>C </c><c>   3</c></rc>
    <rc><c>C </c><c>   3</c></rc>
    <rc><c>C </c><c>   3</c></rc>
    <rc><c>C </c><c>   3</c></rc>
    <rc><c>C </c><c>   3</c></rc>
    <rc><c>C </c><c>   3</c></rc>
    <rc><c>C </c><c>   3</c></rc>
    <rc><c>C </c><c>   3</c></rc>
    <rc><c>C </c><c>   3</c></rc>
   </set>
  </array>
  <array name="atomtypes" >
   <dimension dim="1">type</dimension>
   <field type="int">atomspertype</field>
   <field type="string">element</field>
   <field>mass</field>
   <field>valence</field>
   <field type="string">pseudopotential</field>
   <set>
    <rc><c>  51</c><c>H </c><c>      1.00000000</c><c>      1.00000000</c><c>  PAW_PBE H 15Jun2001                   </c></rc>
    <rc><c>   5</c><c>N </c><c>     14.00100000</c><c>      5.00000000</c><c>  PAW_PBE N 08Apr2002                   </c></rc>
    <rc><c>  72</c><c>C </c><c>     12.01100000</c><c>      4.00000000</c><c>  PAW_PBE C 08Apr2002                   </c></rc>
   </set>
  </array>
 </atominfo>
 <structure name="initialpos" >
  <crystal>
   <varray name="basis" >
    <v>      32.27503577       0.03121801       0.00000000 </v>
    <v>     -16.11037347      27.93846432       0.00000000 </v>
    <v>       0.00000000       0.00000000      20.00000000 </v>
   </varray>
   <i name="volume">  18044.35737943 </i>
   <varray name="rec_basis" >
    <v>       0.03096643       0.01785641       0.00000000 </v>
    <v>      -0.00003460       0.03577300       0.00000000 </v>
    <v>       0.00000000       0.00000000       0.05000000 </v>
   </varray>
  </crystal>
  <varray name="positions" >
   <v>       0.29723807       0.59781574       0.55239391 </v>
   <v>       0.34158417       0.55424495       0.55144566 </v>
   <v>       0.39299751       0.69540391       0.40418564 </v>
   <v>       0.43573787       0.65034175       0.39981767 </v>
   <v>       0.52624165       0.58412633       0.42486693 </v>
   <v>       0.48354383       0.62916232       0.42989240 </v>
   <v>       0.47436864       0.50361145       0.34773075 </v>
   <v>       0.36168895       0.50634275       0.51690371 </v>
   <v>       0.40622474       0.46294440       0.51601860 </v>
   <v>       0.43738597       0.82032118       0.55136237 </v>
   <v>       0.39382411       0.73248018       0.55235112 </v>
   <v>       0.29611677       0.73097725       0.40447390 </v>
   <v>       0.26105215       0.59875913       0.40403918 </v>
   <v>       0.17339142       0.55593906       0.39962792 </v>
   <v>       0.25895532       0.69440898       0.55245853 </v>
   <v>       0.10458999       0.50799428       0.42977593 </v>
   <v>       0.48534146       0.88806611       0.51643039 </v>
   <v>       0.34115890       0.81869976       0.40006030 </v>
   <v>       0.17117982       0.64997476       0.55150370 </v>
   <v>       0.36252807       0.88779543       0.43024086 </v>
   <v>       0.51563242       0.05727671       0.30798510 </v>
   <v>       0.48774161       0.00360869       0.34769682 </v>
   <v>       0.01698824       0.46518483       0.42467032 </v>
   <v>       0.98840135       0.51767149       0.34785396 </v>
   <v>       0.50232332       0.04014899       0.57733116 </v>
   <v>       0.52883570       0.97592749       0.51563874 </v>
   <v>       0.95165152       0.49358155       0.57724197 </v>
   <v>       0.10321854       0.62980034       0.51695865 </v>
   <v>       0.93482412       0.49223587       0.30803739 </v>
   <v>       0.62827000       0.19707446       0.40106625 </v>
   <v>       0.67221345       0.28573912       0.40242092 </v>
   <v>       0.57345538       0.28419791       0.54859706 </v>
   <v>       0.52980224       0.19550501       0.54764245 </v>
   <v>       0.57304914       0.31982792       0.40269255 </v>
   <v>       0.52821516       0.36374678       0.40144619 </v>
   <v>       0.70803471       0.32153688       0.54798249 </v>
   <v>       0.79665599       0.36629720       0.54672860 </v>
   <v>       0.79486659       0.46369752       0.40111216 </v>
   <v>       0.70626793       0.41919099       0.40262628 </v>
   <v>       0.67030168       0.41895348       0.54833760 </v>
   <v>       0.62517546       0.46260716       0.54747681 </v>
   <v>       0.40768898       0.97545888       0.42518074 </v>
   <v>       0.54565596       0.13218392       0.36555126 </v>
   <v>       0.85991665       0.44659710       0.36522745 </v>
   <v>       0.54555514       0.44616114       0.36569798 </v>
   <v>       0.50019478       0.47565626       0.30813365 </v>
   <v>       0.54660360       0.12908655       0.58095161 </v>
   <v>       0.86278999       0.44882721       0.58066679 </v>
   <v>       0.01544297       0.58512911       0.51608860 </v>
   <v>       0.49711401       0.48990337       0.57741924 </v>
   <v>       0.54206662       0.44585547       0.58111621 </v>
   <v>       0.31669076       0.67498888       0.47985493 </v>
   <v>       0.49634841       0.03847517       0.34825118 </v>
   <v>       0.95360621       0.49139543       0.34811223 </v>
   <v>       0.65055718       0.34160812       0.47582503 </v>
   <v>       0.50064815       0.49503890       0.34829636 </v>
   <v>       0.34202197       0.64970795       0.47847427 </v>
   <v>       0.32776661       0.60924282       0.51903462 </v>
   <v>       0.35274322       0.58447065       0.51757276 </v>
   <v>       0.39251420       0.59833387       0.47534849 </v>
   <v>       0.40611755       0.63889727       0.43484014 </v>
   <v>       0.38179282       0.66432178       0.43641819 </v>
   <v>       0.46955563       0.52015575       0.47035353 </v>
   <v>       0.49002325       0.56699483       0.44511966 </v>
   <v>       0.46545598       0.59224623       0.44750878 </v>
   <v>       0.41873912       0.57161644       0.47357909 </v>
   <v>       0.39819977       0.52441842       0.49782090 </v>
   <v>       0.42313611       0.49948728       0.49687178 </v>
   <v>       0.34189617       0.72554340       0.47855711 </v>
   <v>       0.26617230       0.64967489       0.47843471 </v>
   <v>       0.38237560       0.75163390       0.51904208 </v>
   <v>       0.40714376       0.80133571       0.51755070 </v>
   <v>       0.35265072       0.80047646       0.43500767 </v>
   <v>       0.32723012       0.75077426       0.43661636 </v>
   <v>       0.24113702       0.60991513       0.43630503 </v>
   <v>       0.19147591       0.58554728       0.43471177 </v>
   <v>       0.19027067       0.63886032       0.51757787 </v>
   <v>       0.23993870       0.66388946       0.51904390 </v>
   <v>       0.39326710       0.82731397       0.47537230 </v>
   <v>       0.16448769       0.59908982       0.47528793 </v>
   <v>       0.51056244       0.06172986       0.40964811 </v>
   <v>       0.49814761       0.03545290       0.47031078 </v>
   <v>       0.47163859       0.98237722       0.47033284 </v>
   <v>       0.42477209       0.95622398       0.44529619 </v>
   <v>       0.39945896       0.90645288       0.44769096 </v>
   <v>       0.42005271       0.88020211       0.47354950 </v>
   <v>       0.93027552       0.48174872       0.40948552 </v>
   <v>       0.95647698       0.49511628       0.47019724 </v>
   <v>       0.00952305       0.52182862       0.47027837 </v>
   <v>       0.03595884       0.50141285       0.44499477 </v>
   <v>       0.08569650       0.52604817       0.44740793 </v>
   <v>       0.11163379       0.57279058       0.47352223 </v>
   <v>       0.51180658       0.06064573       0.53086925 </v>
   <v>       0.46728562       0.90664216       0.49756680 </v>
   <v>       0.49227427       0.95646342       0.49664870 </v>
   <v>       0.93123726       0.48298355       0.53071506 </v>
   <v>       0.08490959       0.59327467       0.49782382 </v>
   <v>       0.03512414       0.56826113       0.49687480 </v>
   <v>       0.62571640       0.29097224       0.47544979 </v>
   <v>       0.70114589       0.36728190       0.47530317 </v>
   <v>       0.62478687       0.36650530       0.47545749 </v>
   <v>       0.58454482       0.35132678       0.43415125 </v>
   <v>       0.55954770       0.37615301       0.43355463 </v>
   <v>       0.57343664       0.41656275       0.47420255 </v>
   <v>       0.61354502       0.43120236       0.51571021 </v>
   <v>       0.63901039       0.40684453       0.51631492 </v>
   <v>       0.64079372       0.26583785       0.43398187 </v>
   <v>       0.61595077       0.21605352       0.43332445 </v>
   <v>       0.57563499       0.18965311       0.47407996 </v>
   <v>       0.56112739       0.21519125       0.51578219 </v>
   <v>       0.58548915       0.26496550       0.51644521 </v>
   <v>       0.72719518       0.35285002       0.51597024 </v>
   <v>       0.77692751       0.37811666       0.51516790 </v>
   <v>       0.80238559       0.41825840       0.47369756 </v>
   <v>       0.77593988       0.43235125       0.43321961 </v>
   <v>       0.72619590       0.40753500       0.43398220 </v>
   <v>       0.54914387       0.13673175       0.47315882 </v>
   <v>       0.53637767       0.11195848       0.41231184 </v>
   <v>       0.85526317       0.44466220       0.47282755 </v>
   <v>       0.88008176       0.45721399       0.41203249 </v>
   <v>       0.54688019       0.44297515       0.47330470 </v>
   <v>       0.53462496       0.45549571       0.41244075 </v>
   <v>       0.50999840       0.48114480       0.40973323 </v>
   <v>       0.49624439       0.49371879       0.47037336 </v>
   <v>       0.53633513       0.11043993       0.53309067 </v>
   <v>       0.88147957       0.45764779       0.53282142 </v>
   <v>       0.50804488       0.48031686       0.53095618 </v>
   <v>       0.53347027       0.45590481       0.53322321 </v>
  </varray>
 </structure>
 <calculation>
  <scstep>
   <time name="dav">  438.35  442.63</time>
   <time name="total">  438.67  442.96</time>
   <energy>
    <i name="alphaZ">     34.50773116 </i>
    <i name="ewald">  45922.70695479 </i>
    <i name="hartreedc"> -56160.55299400 </i>
    <i name="XCdc">   1229.14275891 </i>
    <i name="pawpsdc">  32989.10410654 </i>
    <i name="pawaedc"> -33047.14165531 </i>
    <i name="eentropy">     -0.00000000 </i>
    <i name="bandstr">  -4399.26363837 </i>
    <i name="atom">  12554.16853149 </i>
    <i name="e_fr_energy">   -877.32820480 </i>
    <i name="e_wo_entrp">   -877.32820480 </i>
    <i name="e_0_energy">   -877.32820480 </i>
   </energy>
  </scstep>
  <scstep>
   <time name="dav">  472.82  477.31</time>
   <time name="total">  472.83  477.32</time>
   <energy>
    <i name="e_fr_energy">   -877.68726460 </i>
    <i name="e_wo_entrp">   -877.68726460 </i>
    <i name="e_0_energy">   -877.68726460 </i>
   </energy>
  </scstep>
  <scstep>
   <time name="dav">  538.61  543.65</time>
   <time name="total">  538.62  543.66</time>
   <energy>
    <i name="e_fr_energy">   -877.69707559 </i>
    <i name="e_wo_entrp">   -877.69707559 </i>
    <i name="e_0_energy">   -877.69707559 </i>
   </energy>
  </scstep>
  <scstep>
   <time name="dav">  471.62  476.06</time>
   <time name="total">  471.63  476.08</time>
   <energy>
    <i name="e_fr_energy">   -877.69720084 </i>
    <i name="e_wo_entrp">   -877.69720084 </i>
    <i name="e_0_energy">   -877.69720084 </i>
   </energy>
  </scstep>
  <scstep>
   <time name="dav">  434.23  438.31</time>
   <time name="total">  434.24  438.32</time>
   <energy>
    <i name="alphaZ">     34.50773116 </i>
    <i name="ewald">  45922.70695479 </i>
    <i name="hartreedc"> -56160.55299400 </i>
    <i name="XCdc">   1229.14275891 </i>
    <i name="pawpsdc">  32989.10410654 </i>
    <i name="pawaedc"> -33047.14165531 </i>
    <i name="eentropy">     -0.00000000 </i>
    <i name="bandstr">  -4399.63263994 </i>
    <i name="atom">  12554.16853149 </i>
    <i name="e_fr_energy">   -877.69720636 </i>
    <i name="e_wo_entrp">   -877.69720636 </i>
    <i name="e_0_energy">   -877.69720636 </i>
   </energy>
  </scstep>
  <structure>
   <crystal>
    <varray name="basis" >
     <v>      32.27503577       0.03121801       0.00000000 </v>
     <v>     -16.11037347      27.93846432       0.00000000 </v>
     <v>       0.00000000       0.00000000      20.00000000 </v>
    </varray>
    <i name="volume">  18044.35737943 </i>
    <varray name="rec_basis" >
     <v>       0.03096643       0.01785641       0.00000000 </v>
     <v>      -0.00003460       0.03577300       0.00000000 </v>
     <v>       0.00000000       0.00000000       0.05000000 </v>
    </varray>
   </crystal>
   <varray name="positions" >
    <v>       0.29723807       0.59781574       0.55239391 </v>
    <v>       0.34158417       0.55424495       0.55144566 </v>
    <v>       0.39299751       0.69540391       0.40418564 </v>
    <v>       0.43573787       0.65034175       0.39981767 </v>
    <v>       0.52624165       0.58412633       0.42486693 </v>
    <v>       0.48354383       0.62916232       0.42989240 </v>
    <v>       0.47436864       0.50361145       0.34773075 </v>
    <v>       0.36168895       0.50634275       0.51690371 </v>
    <v>       0.40622474       0.46294440       0.51601860 </v>
    <v>       0.43738597       0.82032118       0.55136237 </v>
    <v>       0.39382411       0.73248018       0.55235112 </v>
    <v>       0.29611677       0.73097725       0.40447390 </v>
    <v>       0.26105215       0.59875913       0.40403918 </v>
    <v>       0.17339142       0.55593906       0.39962792 </v>
    <v>       0.25895532       0.69440898       0.55245853 </v>
    <v>       0.10458999       0.50799428       0.42977593 </v>
    <v>       0.48534146       0.88806611       0.51643039 </v>
    <v>       0.34115890       0.81869976       0.40006030 </v>
    <v>       0.17117982       0.64997476       0.55150370 </v>
    <v>       0.36252807       0.88779543       0.43024086 </v>
    <v>       0.51563242       0.05727671       0.30798510 </v>
    <v>       0.48774161       0.00360869       0.34769682 </v>
    <v>       0.01698824       0.46518483       0.42467032 </v>
    <v>       0.98840135       0.51767149       0.34785396 </v>
    <v>       0.50232332       0.04014899       0.57733116 </v>
    <v>       0.52883570       0.97592749       0.51563874 </v>
    <v>       0.95165152       0.49358155       0.57724197 </v>
    <v>       0.10321854       0.62980034       0.51695865 </v>
    <v>       0.93482412       0.49223587       0.30803739 </v>
    <v>       0.62827000       0.19707446       0.40106625 </v>
    <v>       0.67221345       0.28573912       0.40242092 </v>
    <v>       0.57345538       0.28419791       0.54859706 </v>
    <v>       0.52980224       0.19550501       0.54764245 </v>
    <v>       0.57304914       0.31982792       0.40269255 </v>
    <v>       0.52821516       0.36374678       0.40144619 </v>
    <v>       0.70803471       0.32153688       0.54798249 </v>
    <v>       0.79665599       0.36629720       0.54672860 </v>
    <v>       0.79486659       0.46369752       0.40111216 </v>
    <v>       0.70626793       0.41919099       0.40262628 </v>
    <v>       0.67030168       0.41895348       0.54833760 </v>
    <v>       0.62517546       0.46260716       0.54747681 </v>
    <v>       0.40768898       0.97545888       0.42518074 </v>
    <v>       0.54565596       0.13218392       0.36555126 </v>
    <v>       0.85991665       0.44659710       0.36522745 </v>
    <v>       0.54555514       0.44616114       0.36569798 </v>
    <v>       0.50019478       0.47565626       0.30813365 </v>
    <v>       0.54660360       0.12908655       0.58095161 </v>
    <v>       0.86278999       0.44882721       0.58066679 </v>
    <v>       0.01544297       0.58512911       0.51608860 </v>
    <v>       0.49711401       0.48990337       0.57741924 </v>
    <v>       0.54206662       0.44585547       0.58111621 </v>
    <v>       0.31669076       0.67498888       0.47985493 </v>
    <v>       0.49634841       0.03847517       0.34825118 </v>
    <v>       0.95360621       0.49139543       0.34811223 </v>
    <v>       0.65055718       0.34160812       0.47582503 </v>
    <v>       0.50064815       0.49503890       0.34829636 </v>
    <v>       0.34202197       0.64970795       0.47847427 </v>
    <v>       0.32776661       0.60924282       0.51903462 </v>
    <v>       0.35274322       0.58447065       0.51757276 </v>
    <v>       0.39251420       0.59833387       0.47534849 </v>
    <v>       0.40611755       0.63889727       0.43484014 </v>
    <v>       0.38179282       0.66432178       0.43641819 </v>
    <v>       0.46955563       0.52015575       0.47035353 </v>
    <v>       0.49002325       0.56699483       0.44511966 </v>
    <v>       0.46545598       0.59224623       0.44750878 </v>
    <v>       0.41873912       0.57161644       0.47357909 </v>
    <v>       0.39819977       0.52441842       0.49782090 </v>
    <v>       0.42313611       0.49948728       0.49687178 </v>
    <v>       0.34189617       0.72554340       0.47855711 </v>
    <v>       0.26617230       0.64967489       0.47843471 </v>
    <v>       0.38237560       0.75163390       0.51904208 </v>
    <v>       0.40714376       0.80133571       0.51755070 </v>
    <v>       0.35265072       0.80047646       0.43500767 </v>
    <v>       0.32723012       0.75077426       0.43661636 </v>
    <v>       0.24113702       0.60991513       0.43630503 </v>
    <v>       0.19147591       0.58554728       0.43471177 </v>
    <v>       0.19027067       0.63886032       0.51757787 </v>
    <v>       0.23993870       0.66388946       0.51904390 </v>
    <v>       0.39326710       0.82731397       0.47537230 </v>
    <v>       0.16448769       0.59908982       0.47528793 </v>
    <v>       0.51056244       0.06172986       0.40964811 </v>
    <v>       0.49814761       0.03545290       0.47031078 </v>
    <v>       0.47163859       0.98237722       0.47033284 </v>
    <v>       0.42477209       0.95622398       0.44529619 </v>
    <v>       0.39945896       0.90645288       0.44769096 </v>
    <v>       0.42005271       0.88020211       0.47354950 </v>
    <v>       0.93027552       0.48174872       0.40948552 </v>
    <v>       0.95647698       0.49511628       0.47019724 </v>
    <v>       0.00952305       0.52182862       0.47027837 </v>
    <v>       0.03595884       0.50141285       0.44499477 </v>
    <v>       0.08569650       0.52604817       0.44740793 </v>
    <v>       0.11163379       0.57279058       0.47352223 </v>
    <v>       0.51180658       0.06064573       0.53086925 </v>
    <v>       0.46728562       0.90664216       0.49756680 </v>
    <v>       0.49227427       0.95646342       0.49664870 </v>
    <v>       0.93123726       0.48298355       0.53071506 </v>
    <v>       0.08490959       0.59327467       0.49782382 </v>
    <v>       0.03512414       0.56826113       0.49687480 </v>
    <v>       0.62571640       0.29097224       0.47544979 </v>
    <v>       0.70114589       0.36728190       0.47530317 </v>
    <v>       0.62478687       0.36650530       0.47545749 </v>
    <v>       0.58454482       0.35132678       0.43415125 </v>
    <v>       0.55954770       0.37615301       0.43355463 </v>
    <v>       0.57343664       0.41656275       0.47420255 </v>
    <v>       0.61354502       0.43120236       0.51571021 </v>
    <v>       0.63901039       0.40684453       0.51631492 </v>
    <v>       0.64079372       0.26583785       0.43398187 </v>
    <v>       0.61595077       0.21605352       0.43332445 </v>
    <v>       0.57563499       0.18965311       0.47407996 </v>
    <v>       0.56112739       0.21519125       0.51578219 </v>
    <v>       0.58548915       0.26496550       0.51644521 </v>
    <v>       0.72719518       0.35285002       0.51597024 </v>
    <v>       0.77692751       0.37811666       0.51516790 </v>
    <v>       0.80238559       0.41825840       0.47369756 </v>
    <v>       0.77593988       0.43235125       0.43321961 </v>
    <v>       0.72619590       0.40753500       0.43398220 </v>
    <v>       0.54914387       0.13673175       0.47315882 </v>
    <v>       0.53637767       0.11195848       0.41231184 </v>
    <v>       0.85526317       0.44466220       0.47282755 </v>
    <v>       0.88008176       0.45721399       0.41203249 </v>
    <v>       0.54688019       0.44297515       0.47330470 </v>
    <v>       0.53462496       0.45549571       0.41244075 </v>
    <v>       0.50999840       0.48114480       0.40973323 </v>
    <v>       0.49624439       0.49371879       0.47037336 </v>
    <v>       0.53633513       0.11043993       0.53309067 </v>
    <v>       0.88147957       0.45764779       0.53282142 </v>
    <v>       0.50804488       0.48031686       0.53095618 </v>
    <v>       0.53347027       0.45590481       0.53322321 </v>
   </varray>
  </structure>
  <varray name="forces" >
   <v>       0.00137058      -0.00026681       0.00021361 </v>
   <v>       0.00015930      -0.00101391       0.00078091 </v>
   <v>      -0.00078636      -0.00105217       0.00243926 </v>
   <v>      -0.00234341       0.00061258      -0.00006001 </v>
   <v>      -0.00130584      -0.00161085       0.00310645 </v>
   <v>       0.00223109       0.00112893       0.00469913 </v>
   <v>      -0.00185762      -0.00054530       0.00136311 </v>
   <v>      -0.00088769      -0.00178241      -0.00350283 </v>
   <v>      -0.00129589       0.00140457      -0.00104483 </v>
   <v>       0.00028589       0.00004894      -0.00034599 </v>
   <v>       0.00051979       0.00147956       0.00018989 </v>
   <v>       0.00311438       0.00236942       0.00259960 </v>
   <v>      -0.00198285       0.00116361       0.00210729 </v>
   <v>       0.00119229       0.00188785       0.00114887 </v>
   <v>      -0.00178847      -0.00023681       0.00028691 </v>
   <v>      -0.00339655      -0.00014407       0.00360142 </v>
   <v>       0.00051770      -0.00049362      -0.00230990 </v>
   <v>       0.00107428      -0.00063055       0.00004541 </v>
   <v>      -0.00161088      -0.00079184      -0.00003585 </v>
   <v>      -0.00074408       0.00022331       0.00513287 </v>
   <v>       0.00169041       0.00118218       0.00151515 </v>
   <v>      -0.00069727       0.00082201      -0.00007260 </v>
   <v>      -0.00059969       0.00448795       0.00429895 </v>
   <v>       0.00029378      -0.00157891      -0.00013441 </v>
   <v>       0.00065740       0.00046054       0.00109355 </v>
   <v>      -0.00045575      -0.00238052      -0.00192063 </v>
   <v>       0.00064912       0.00103080       0.00191673 </v>
   <v>       0.00052261       0.00264120      -0.00324839 </v>
   <v>      -0.00212625       0.00142657      -0.00397656 </v>
   <v>      -0.00207655      -0.00120964       0.00054560 </v>
   <v>      -0.00024884      -0.00249586      -0.00056823 </v>
   <v>      -0.00165554       0.00118998       0.00183237 </v>
   <v>      -0.00259174      -0.00167610       0.00119433 </v>
   <v>      -0.00129994       0.00217691       0.00014768 </v>
   <v>      -0.00087940       0.00059084      -0.00073326 </v>
   <v>      -0.00131311      -0.00260033       0.00173023 </v>
   <v>      -0.00011121      -0.00141490       0.00123096 </v>
   <v>      -0.00084354       0.00117648      -0.00060630 </v>
   <v>       0.00053111      -0.00047746       0.00103778 </v>
   <v>       0.00248644       0.00237748       0.00179323 </v>
   <v>       0.00007863       0.00432686       0.00202836 </v>
   <v>       0.00215454      -0.00364887       0.00360336 </v>
   <v>      -0.00186117       0.00123022       0.00077379 </v>
   <v>       0.00123195       0.00098742      -0.00229262 </v>
   <v>      -0.00119333       0.00005844      -0.00026803 </v>
   <v>      -0.00094005      -0.00268864       0.00074725 </v>
   <v>       0.00089991       0.00117057       0.00377261 </v>
   <v>       0.00237318       0.00075707      -0.00190027 </v>
   <v>       0.00128073       0.00117170      -0.00324046 </v>
   <v>      -0.00033212       0.00005545       0.00045461 </v>
   <v>      -0.00168952      -0.00136447       0.00050178 </v>
   <v>      -0.00168667       0.00000193       0.00129861 </v>
   <v>       0.00156706      -0.00178247      -0.00091755 </v>
   <v>       0.00242567       0.00087955       0.00237592 </v>
   <v>       0.00090313      -0.00133144       0.00184856 </v>
   <v>       0.00108459       0.00193341       0.00070778 </v>
   <v>       0.00065899       0.00037063      -0.00012868 </v>
   <v>      -0.00123328      -0.00012103       0.00058990 </v>
   <v>      -0.00196583       0.00069086      -0.00016636 </v>
   <v>       0.00106758       0.00243113      -0.00209099 </v>
   <v>      -0.00186036       0.00156691      -0.00047856 </v>
   <v>      -0.00031293       0.00066012       0.00012772 </v>
   <v>      -0.00034766       0.00172279       0.00030834 </v>
   <v>       0.00151245       0.00076979       0.00219625 </v>
   <v>       0.00503471      -0.00067636       0.00284319 </v>
   <v>       0.00054651       0.00150964      -0.00100070 </v>
   <v>       0.00245136      -0.00264496      -0.00219671 </v>
   <v>       0.00026491      -0.00054536      -0.00122663 </v>
   <v>       0.00019864       0.00205122      -0.00186505 </v>
   <v>       0.00038249       0.00134067       0.00077692 </v>
   <v>       0.00063649       0.00131667       0.00068037 </v>
   <v>       0.00110584      -0.00260177       0.00023610 </v>
   <v>      -0.00066538      -0.00289088      -0.00063053 </v>
   <v>      -0.00173427      -0.00244092      -0.00094766 </v>
   <v>       0.00205013      -0.00036330      -0.00144526 </v>
   <v>       0.00233087      -0.00156077      -0.00257215 </v>
   <v>       0.00361279       0.00169698      -0.00118017 </v>
   <v>      -0.00173447       0.00023947       0.00023182 </v>
   <v>       0.00102950      -0.00089943       0.00052939 </v>
   <v>      -0.00226154      -0.00211689      -0.00010887 </v>
   <v>       0.00213483       0.00410963       0.00004057 </v>
   <v>       0.00227712      -0.00443851      -0.00351852 </v>
   <v>      -0.00378713      -0.00122790      -0.00044772 </v>
   <v>      -0.00302038       0.00135239       0.00072067 </v>
   <v>      -0.00537402       0.00485908       0.00111315 </v>
   <v>      -0.00295636      -0.00058522       0.00018473 </v>
   <v>       0.00119071       0.00109064       0.00080804 </v>
   <v>       0.00336452       0.00263712      -0.00407926 </v>
   <v>       0.00176212      -0.00165982       0.00039985 </v>
   <v>       0.00092072      -0.00410327       0.00194823 </v>
   <v>       0.00006463      -0.00696988       0.00124231 </v>
   <v>       0.00067879       0.00012259       0.00049697 </v>
   <v>       0.00011512      -0.00260889      -0.00267615 </v>
   <v>       0.00109598       0.00335562      -0.00214452 </v>
   <v>      -0.00037551       0.00207240      -0.00308648 </v>
   <v>      -0.00052093      -0.00042464       0.00227875 </v>
   <v>      -0.00378082      -0.00133124      -0.00159327 </v>
   <v>       0.00015365       0.00192340      -0.00033325 </v>
   <v>       0.00250393       0.00358724      -0.00330135 </v>
   <v>      -0.00672189      -0.00263513      -0.00221523 </v>
   <v>       0.00057842      -0.00299424      -0.00305152 </v>
   <v>       0.00126587      -0.00003928       0.00099248 </v>
   <v>      -0.00002242       0.00243766       0.00164876 </v>
   <v>      -0.00189246       0.00088000      -0.00023368 </v>
   <v>      -0.00086191      -0.00403233      -0.00388190 </v>
   <v>      -0.00191564      -0.00329195      -0.00359458 </v>
   <v>      -0.00152063      -0.00197508       0.00085089 </v>
   <v>      -0.00070929       0.00027595      -0.00035818 </v>
   <v>       0.00244293      -0.00453705      -0.00139493 </v>
   <v>      -0.00027485      -0.00024368      -0.00105622 </v>
   <v>       0.00358493       0.00462022      -0.00379985 </v>
   <v>      -0.00180555       0.00127595      -0.00162836 </v>
   <v>       0.00194343       0.00271737      -0.00128300 </v>
   <v>       0.00585510       0.00197331      -0.00009336 </v>
   <v>       0.00272094      -0.00056664       0.00245942 </v>
   <v>       0.00014812       0.00047205       0.00110721 </v>
   <v>      -0.00107310       0.00193252      -0.00419703 </v>
   <v>       0.00002688      -0.00186584      -0.00084879 </v>
   <v>      -0.00071850      -0.00187858       0.00408295 </v>
   <v>      -0.00180528      -0.00287218       0.00371524 </v>
   <v>       0.00320319       0.00085961      -0.00022267 </v>
   <v>       0.00176686      -0.00065751       0.00201248 </v>
   <v>       0.00156932      -0.00124108       0.00186221 </v>
   <v>      -0.00351117       0.00132656      -0.00416716 </v>
   <v>       0.00159456       0.00189157      -0.00035574 </v>
   <v>      -0.00572758      -0.00238021      -0.00296138 </v>
   <v>      -0.00096773       0.00144877       0.00154143 </v>
   <v>       0.00491871      -0.00140307      -0.00244913 </v>
  </varray>
  <varray name="stress" >
   <v>      -0.00466969      -0.00035027       0.00095608 </v>
   <v>      -0.00035027      -0.00222794      -0.00194945 </v>
   <v>       0.00095608      -0.00194945      -0.14087992 </v>
  </varray>
  <energy>
   <i name="e_fr_energy">   -880.25473942 </i>
   <i name="e_wo_entrp">   -880.25473942 </i>
   <i name="e_0_energy">     -0.00000000 </i>
  </energy>
  <time name="totalsc"> 2792.70 2820.57</time>
  <eigenvalues>
   <array>
    <dimension dim="1">band</dimension>
    <dimension dim="2">kpoint</dimension>
    <dimension dim="3">spin</dimension>
    <field>eigene</field>
    <field>occ</field>
    <set>
     <set comment="spin 1">
      <set comment="kpoint 1">
       <r>  -24.1520    1.0000 </r>
       <r>  -23.8911    1.0000 </r>
       <r>  -22.6679    1.0000 </r>
       <r>  -22.6664    1.0000 </r>
       <r>  -22.6653    1.0000 </r>
       <r>  -21.4016    1.0000 </r>
       <r>  -21.4005    1.0000 </r>
       <r>  -21.2790    1.0000 </r>
       <r>  -21.1058    1.0000 </r>
       <r>  -21.1052    1.0000 </r>
       <r>  -20.9375    1.0000 </r>
       <r>  -20.9368    1.0000 </r>
       <r>  -20.8681    1.0000 </r>
       <r>  -20.6167    1.0000 </r>
       <r>  -20.3871    1.0000 </r>
       <r>  -20.3865    1.0000 </r>
       <r>  -20.1391    1.0000 </r>
       <r>  -19.4322    1.0000 </r>
       <r>  -19.4320    1.0000 </r>
       <r>  -19.0790    1.0000 </r>
       <r>  -18.8334    1.0000 </r>
       <r>  -18.8329    1.0000 </r>
       <r>  -18.3967    1.0000 </r>
       <r>  -18.3958    1.0000 </r>
       <r>  -18.3504    1.0000 </r>
       <r>  -18.1885    1.0000 </r>
       <r>  -18.1882    1.0000 </r>
       <r>  -18.1743    1.0000 </r>
       <r>  -18.1025    1.0000 </r>
       <r>  -18.1019    1.0000 </r>
       <r>  -18.0862    1.0000 </r>
       <r>  -18.0633    1.0000 </r>
       <r>  -17.9726    1.0000 </r>
       <r>  -17.9723    1.0000 </r>
       <r>  -17.5946    1.0000 </r>
       <r>  -17.5938    1.0000 </r>
       <r>  -17.5673    1.0000 </r>
       <r>  -17.1944    1.0000 </r>
       <r>  -17.1451    1.0000 </r>
       <r>  -17.1447    1.0000 </r>
       <r>  -16.4405    1.0000 </r>
       <r>  -15.7998    1.0000 </r>
       <r>  -15.7993    1.0000 </r>
       <r>  -15.2804    1.0000 </r>
       <r>  -15.2803    1.0000 </r>
       <r>  -15.1564    1.0000 </r>
       <r>  -15.0608    1.0000 </r>
       <r>  -15.0602    1.0000 </r>
       <r>  -14.9685    1.0000 </r>
       <r>  -14.8182    1.0000 </r>
       <r>  -14.7336    1.0000 </r>
       <r>  -14.7329    1.0000 </r>
       <r>  -14.5028    1.0000 </r>
       <r>  -14.5010    1.0000 </r>
       <r>  -14.4365    1.0000 </r>
       <r>  -14.2071    1.0000 </r>
       <r>  -14.1706    1.0000 </r>
       <r>  -14.1700    1.0000 </r>
       <r>  -14.1111    1.0000 </r>
       <r>  -14.1014    1.0000 </r>
       <r>  -14.1008    1.0000 </r>
       <r>  -13.7576    1.0000 </r>
       <r>  -13.7562    1.0000 </r>
       <r>  -13.6808    1.0000 </r>
       <r>  -13.5247    1.0000 </r>
       <r>  -13.1049    1.0000 </r>
       <r>  -13.1044    1.0000 </r>
       <r>  -12.8576    1.0000 </r>
       <r>  -12.8570    1.0000 </r>
       <r>  -12.7817    1.0000 </r>
       <r>  -12.5572    1.0000 </r>
       <r>  -12.5565    1.0000 </r>
       <r>  -12.4723    1.0000 </r>
       <r>  -12.3252    1.0000 </r>
       <r>  -12.3068    1.0000 </r>
       <r>  -12.3050    1.0000 </r>
       <r>  -12.1333    1.0000 </r>
       <r>  -12.1329    1.0000 </r>
       <r>  -11.6540    1.0000 </r>
       <r>  -11.5460    1.0000 </r>
       <r>  -11.5451    1.0000 </r>
       <r>  -11.5261    1.0000 </r>
       <r>  -11.2196    1.0000 </r>
       <r>  -11.2184    1.0000 </r>
       <r>  -11.1697    1.0000 </r>
       <r>  -11.0034    1.0000 </r>
       <r>  -10.9411    1.0000 </r>
       <r>  -10.9402    1.0000 </r>
       <r>  -10.7024    1.0000 </r>
       <r>  -10.7014    1.0000 </r>
       <r>  -10.6876    1.0000 </r>
       <r>  -10.6115    1.0000 </r>
       <r>  -10.6108    1.0000 </r>
       <r>  -10.5864    1.0000 </r>
       <r>  -10.4406    1.0000 </r>
       <r>  -10.4252    1.0000 </r>
       <r>  -10.4245    1.0000 </r>
       <r>  -10.3539    1.0000 </r>
       <r>  -10.3533    1.0000 </r>
       <r>  -10.2939    1.0000 </r>
       <r>  -10.1665    1.0000 </r>
       <r>  -10.1658    1.0000 </r>
       <r>  -10.1581    1.0000 </r>
       <r>  -10.1275    1.0000 </r>
       <r>  -10.0980    1.0000 </r>
       <r>  -10.0970    1.0000 </r>
       <r>  -10.0372    1.0000 </r>
       <r>  -10.0358    1.0000 </r>
       <r>   -9.9019    1.0000 </r>
       <r>   -9.8496    1.0000 </r>
       <r>   -9.8495    1.0000 </r>
       <r>   -9.8384    1.0000 </r>
       <r>   -9.7954    1.0000 </r>
       <r>   -9.7814    1.0000 </r>
       <r>   -9.7806    1.0000 </r>
       <r>   -9.7306    1.0000 </r>
       <r>   -9.7305    1.0000 </r>
       <r>   -9.7296    1.0000 </r>
       <r>   -9.4436    1.0000 </r>
       <r>   -9.4425    1.0000 </r>
       <r>   -9.1980    1.0000 </r>
       <r>   -9.1963    1.0000 </r>
       <r>   -9.1796    1.0000 </r>
       <r>   -9.1224    1.0000 </r>
       <r>   -9.0541    1.0000 </r>
       <r>   -9.0533    1.0000 </r>
       <r>   -8.9539    1.0000 </r>
       <r>   -8.9125    1.0000 </r>
       <r>   -8.7328    1.0000 </r>
       <r>   -8.6934    1.0000 </r>
       <r>   -8.6931    1.0000 </r>
       <r>   -8.6658    1.0000 </r>
       <r>   -8.6646    1.0000 </r>
       <r>   -8.6146    1.0000 </r>
       <r>   -8.6137    1.0000 </r>
       <r>   -8.4314    1.0000 </r>
       <r>   -8.2883    1.0000 </r>
       <r>   -8.2878    1.0000 </r>
       <r>   -8.2799    1.0000 </r>
       <r>   -8.1806    1.0000 </r>
       <r>   -8.1802    1.0000 </r>
       <r>   -8.1585    1.0000 </r>
       <r>   -8.0440    1.0000 </r>
       <r>   -8.0434    1.0000 </r>
       <r>   -7.8259    1.0000 </r>
       <r>   -7.8105    1.0000 </r>
       <r>   -7.7172    1.0000 </r>
       <r>   -7.7160    1.0000 </r>
       <r>   -7.6155    1.0000 </r>
       <r>   -7.6151    1.0000 </r>
       <r>   -7.6074    1.0000 </r>
       <r>   -7.5624    1.0000 </r>
       <r>   -7.5613    1.0000 </r>
       <r>   -7.3582    1.0000 </r>
       <r>   -7.3284    1.0000 </r>
       <r>   -7.2527    1.0000 </r>
       <r>   -7.2518    1.0000 </r>
       <r>   -6.9112    1.0000 </r>
       <r>   -6.9057    1.0000 </r>
       <r>   -6.9041    1.0000 </r>
       <r>   -6.3494    1.0000 </r>
       <r>   -6.3211    1.0000 </r>
       <r>   -6.3201    1.0000 </r>
       <r>   -6.1532    1.0000 </r>
       <r>   -6.1525    1.0000 </r>
       <r>   -6.1519    1.0000 </r>
       <r>   -6.1254    1.0000 </r>
       <r>   -6.0707    1.0000 </r>
       <r>   -6.0376    1.0000 </r>
       <r>   -6.0370    1.0000 </r>
       <r>   -5.8919    1.0000 </r>
       <r>   -5.8910    1.0000 </r>
       <r>   -5.6266    1.0000 </r>
       <r>   -5.5611    1.0000 </r>
       <r>   -5.5584    1.0000 </r>
       <r>   -5.2451    1.0000 </r>
       <r>   -5.2443    1.0000 </r>
       <r>   -4.6380    1.0000 </r>
       <r>   -4.5578    1.0000 </r>
       <r>   -4.5569    1.0000 </r>
       <r>   -4.2835    1.0000 </r>
       <r>   -4.0476    1.0000 </r>
       <r>   -1.9424    0.0000 </r>
       <r>   -1.9409    0.0000 </r>
       <r>   -1.5013    0.0000 </r>
       <r>   -1.4472    0.0000 </r>
       <r>   -1.3766    0.0000 </r>
       <r>   -1.3749    0.0000 </r>
       <r>   -1.2375    0.0000 </r>
       <r>   -1.1608    0.0000 </r>
       <r>   -1.1596    0.0000 </r>
       <r>   -0.9533    0.0000 </r>
       <r>   -0.7846    0.0000 </r>
       <r>   -0.7235    0.0000 </r>
       <r>   -0.7233    0.0000 </r>
       <r>   -0.6750    0.0000 </r>
       <r>   -0.6740    0.0000 </r>
       <r>   -0.5391    0.0000 </r>
       <r>   -0.5368    0.0000 </r>
       <r>   -0.4551    0.0000 </r>
       <r>   -0.4082    0.0000 </r>
       <r>   -0.3927    0.0000 </r>
       <r>   -0.3906    0.0000 </r>
       <r>   -0.3046    0.0000 </r>
       <r>   -0.3039    0.0000 </r>
       <r>   -0.2462    0.0000 </r>
       <r>   -0.0287    0.0000 </r>
       <r>   -0.0284    0.0000 </r>
       <r>   -0.0257    0.0000 </r>
       <r>    0.0408    0.0000 </r>
       <r>    0.0414    0.0000 </r>
       <r>    0.0832    0.0000 </r>
       <r>    0.1395    0.0000 </r>
       <r>    0.1641    0.0000 </r>
       <r>    0.1653    0.0000 </r>
       <r>    0.2610    0.0000 </r>
       <r>    0.2629    0.0000 </r>
       <r>    0.3040    0.0000 </r>
       <r>    0.3235    0.0000 </r>
       <r>    0.3848    0.0000 </r>
       <r>    0.3853    0.0000 </r>
       <r>    0.4428    0.0000 </r>
       <r>    0.4600    0.0000 </r>
       <r>    0.4611    0.0000 </r>
       <r>    0.4703    0.0000 </r>
       <r>    0.4828    0.0000 </r>
       <r>    0.6031    0.0000 </r>
       <r>    0.6043    0.0000 </r>
       <r>    0.6411    0.0000 </r>
       <r>    0.6515    0.0000 </r>
       <r>    0.6520    0.0000 </r>
       <r>    0.6541    0.0000 </r>
       <r>    0.6690    0.0000 </r>
       <r>    0.6703    0.0000 </r>
       <r>    0.6966    0.0000 </r>
       <r>    0.7225    0.0000 </r>
       <r>    0.7263    0.0000 </r>
       <r>    0.7796    0.0000 </r>
       <r>    0.7807    0.0000 </r>
       <r>    0.7911    0.0000 </r>
       <r>    0.8243    0.0000 </r>
       <r>    0.8548    0.0000 </r>
       <r>    0.8851    0.0000 </r>
       <r>    0.8950    0.0000 </r>
       <r>    0.8976    0.0000 </r>
       <r>    0.9227    0.0000 </r>
       <r>    0.9235    0.0000 </r>
       <r>    0.9405    0.0000 </r>
       <r>    0.9702    0.0000 </r>
       <r>    0.9742    0.0000 </r>
       <r>    0.9755    0.0000 </r>
       <r>    1.0364    0.0000 </r>
       <r>    1.0377    0.0000 </r>
       <r>    1.0677    0.0000 </r>
       <r>    1.0945    0.0000 </r>
       <r>    1.0978    0.0000 </r>
      </set>
      <set comment="kpoint 2">
       <r>  -24.1520    1.0000 </r>
       <r>  -23.8911    1.0000 </r>
       <r>  -22.6679    1.0000 </r>
       <r>  -22.6664    1.0000 </r>
       <r>  -22.6653    1.0000 </r>
       <r>  -21.4016    1.0000 </r>
       <r>  -21.4005    1.0000 </r>
       <r>  -21.2790    1.0000 </r>
       <r>  -21.1058    1.0000 </r>
       <r>  -21.1052    1.0000 </r>
       <r>  -20.9377    1.0000 </r>
       <r>  -20.9368    1.0000 </r>
       <r>  -20.8678    1.0000 </r>
       <r>  -20.6169    1.0000 </r>
       <r>  -20.3871    1.0000 </r>
       <r>  -20.3862    1.0000 </r>
       <r>  -20.1393    1.0000 </r>
       <r>  -19.4321    1.0000 </r>
       <r>  -19.4318    1.0000 </r>
       <r>  -19.0801    1.0000 </r>
       <r>  -18.8331    1.0000 </r>
       <r>  -18.8319    1.0000 </r>
       <r>  -18.3967    1.0000 </r>
       <r>  -18.3959    1.0000 </r>
       <r>  -18.3504    1.0000 </r>
       <r>  -18.1957    1.0000 </r>
       <r>  -18.1882    1.0000 </r>
       <r>  -18.1682    1.0000 </r>
       <r>  -18.1025    1.0000 </r>
       <r>  -18.1019    1.0000 </r>
       <r>  -18.0863    1.0000 </r>
       <r>  -18.0634    1.0000 </r>
       <r>  -17.9724    1.0000 </r>
       <r>  -17.9712    1.0000 </r>
       <r>  -17.5946    1.0000 </r>
       <r>  -17.5939    1.0000 </r>
       <r>  -17.5673    1.0000 </r>
       <r>  -17.2030    1.0000 </r>
       <r>  -17.1450    1.0000 </r>
       <r>  -17.1361    1.0000 </r>
       <r>  -16.4415    1.0000 </r>
       <r>  -15.7997    1.0000 </r>
       <r>  -15.7986    1.0000 </r>
       <r>  -15.2812    1.0000 </r>
       <r>  -15.2805    1.0000 </r>
       <r>  -15.1563    1.0000 </r>
       <r>  -15.0616    1.0000 </r>
       <r>  -15.0601    1.0000 </r>
       <r>  -14.9671    1.0000 </r>
       <r>  -14.8183    1.0000 </r>
       <r>  -14.7340    1.0000 </r>
       <r>  -14.7326    1.0000 </r>
       <r>  -14.5028    1.0000 </r>
       <r>  -14.5006    1.0000 </r>
[...]
       <r>   -18.7454     4.7613    42.6417 </r>
       <r>   -18.6528     4.4587    43.1133 </r>
       <r>   -18.5601     8.1513    44.1231 </r>
       <r>   -18.4675     9.5717    45.0882 </r>
       <r>   -18.3749    30.9053    47.9977 </r>
       <r>   -18.2822    37.8000    51.5022 </r>
       <r>   -18.1896    14.0829    52.8714 </r>
       <r>   -18.0970    54.4396    59.0442 </r>
       <r>   -18.0043    21.5898    64.0000 </r>
       <r>   -17.9117    26.8278    66.4853 </r>
       <r>   -17.8190     3.0364    66.8480 </r>
       <r>   -17.7264     8.1765    67.6581 </r>
       <r>   -17.6338     9.9962    68.6936 </r>
       <r>   -17.5411    53.5886    73.9984 </r>
       <r>   -17.4485    11.8125    75.0943 </r>
       <r>   -17.3559     3.2157    75.4319 </r>
       <r>   -17.2632     2.2953    75.7126 </r>
       <r>   -17.1706     2.8693    76.0003 </r>
       <r>   -17.0780    24.5913    78.2784 </r>
       <r>   -16.9853     2.6410    78.5452 </r>
       <r>   -16.8927     2.7252    78.8194 </r>
       <r>   -16.8000     6.5921    79.4774 </r>
       <r>   -16.7074     4.6571    80.0000 </r>
       <r>   -16.6148     9.9741    80.9240 </r>
       <r>   -16.5221     3.7613    81.3493 </r>
       <r>   -16.4295     6.3796    81.9921 </r>
       <r>   -16.3369     0.0000    82.0000 </r>
       <r>   -16.2442     0.0000    82.0000 </r>
       <r>   -16.1516     0.0000    82.0000 </r>
       <r>   -16.0589     0.0000    82.0000 </r>
       <r>   -15.9663     0.0000    82.0000 </r>
       <r>   -15.8737     0.0000    82.0000 </r>
       <r>   -15.7810    24.8255    84.2998 </r>
       <r>   -15.6884     4.0625    84.8097 </r>
       <r>   -15.5958    10.1572    85.8078 </r>
       <r>   -15.5031     0.0368    86.0034 </r>
       <r>   -15.4105    11.8486    87.1010 </r>
       <r>   -15.3179     4.5088    87.5526 </r>
       <r>   -15.2252    25.5271    90.0000 </r>
       <r>   -15.1326    21.6221    92.0030 </r>
       <r>   -15.0399    28.6099    94.6650 </r>
       <r>   -14.9473    14.6881    96.2981 </r>
       <r>   -14.8547    15.4800    97.8347 </r>
       <r>   -14.7620    36.3361   101.3746 </r>
       <r>   -14.6694    19.3792   103.3629 </r>
       <r>   -14.5768     6.2860   104.0829 </r>
       <r>   -14.4841    23.4074   106.4355 </r>
       <r>   -14.3915    23.7039   108.7968 </r>
       <r>   -14.2988    18.4456   111.2469 </r>
       <r>   -14.2062    19.3912   113.3650 </r>
       <r>   -14.1136    47.2748   117.9473 </r>
       <r>   -14.0209    26.0905   120.4905 </r>
       <r>   -13.9283     6.7581   121.1929 </r>
       <r>   -13.8357    14.4326   122.9069 </r>
       <r>   -13.7430    31.3396   125.9718 </r>
       <r>   -13.6504    15.6250   127.4475 </r>
       <r>   -13.5578     0.0002   128.0000 </r>
       <r>   -13.4651    21.5895   130.0000 </r>
       <r>   -13.3725     0.0000   130.0000 </r>
       <r>   -13.2798     0.0000   130.0000 </r>
       <r>   -13.1872     0.0000   130.0000 </r>
       <r>   -13.0946    39.6298   133.6712 </r>
       <r>   -13.0019     0.0000   134.0000 </r>
       <r>   -12.9093     0.0000   134.0000 </r>
       <r>   -12.8167    43.1794   138.0000 </r>
       <r>   -12.7240    15.7690   139.4608 </r>
       <r>   -12.6314    13.1548   141.2186 </r>
       <r>   -12.5388    28.1853   143.9450 </r>
       <r>   -12.4461     3.8146   144.3534 </r>
       <r>   -12.3535     9.2280   145.2892 </r>
       <r>   -12.2608    63.6152   151.8947 </r>
       <r>   -12.1682    14.4466   153.3411 </r>
       <r>   -12.0756    26.9814   156.0000 </r>
       <r>   -11.9829     0.0000   156.0000 </r>
       <r>   -11.8903     0.0000   156.0000 </r>
       <r>   -11.7977     0.0000   156.0000 </r>
       <r>   -11.7050     0.0000   156.0000 </r>
       <r>   -11.6124    14.4345   157.3372 </r>
       <r>   -11.5197    57.2292   163.3015 </r>
       <r>   -11.4271     0.0000   164.0000 </r>
       <r>   -11.3345     0.0000   164.0000 </r>
       <r>   -11.2418     0.0744   164.0069 </r>
       <r>   -11.1492    64.6414   169.9951 </r>
       <r>   -11.0566     0.0000   170.0000 </r>
       <r>   -10.9639    21.6010   172.0010 </r>
       <r>   -10.8713    43.1681   176.0000 </r>
       <r>   -10.7787     0.0000   176.0000 </r>
       <r>   -10.6860    45.0162   180.1702 </r>
       <r>   -10.5934    59.6872   186.0656 </r>
       <r>   -10.5007     6.9503   188.0000 </r>
       <r>   -10.4081    61.9543   193.7392 </r>
       <r>   -10.3155    43.1025   197.9929 </r>
       <r>   -10.2228    33.0893   201.0656 </r>
       <r>   -10.1302    55.7283   206.5700 </r>
       <r>   -10.0376    64.7779   214.0011 </r>
       <r>    -9.9449    13.9549   216.0000 </r>
       <r>    -9.8523    47.4085   220.3918 </r>
       <r>    -9.7596    85.5752   229.9310 </r>
       <r>    -9.6670    57.3591   235.3138 </r>
       <r>    -9.5744     3.2786   236.0064 </r>
       <r>    -9.4817    14.8121   237.3786 </r>
       <r>    -9.3891    26.9802   240.0000 </r>
       <r>    -9.2965     0.0000   240.0000 </r>
       <r>    -9.2038    26.4909   242.4540 </r>
       <r>    -9.1112    41.9275   247.8841 </r>
       <r>    -9.0186    43.1745   252.0000 </r>
       <r>    -8.9259     5.2485   252.4862 </r>
       <r>    -8.8333    33.0833   255.6389 </r>
       <r>    -8.7406    28.3908   258.6301 </r>
       <r>    -8.6480    72.1867   265.8211 </r>
       <r>    -8.5554    43.1787   270.0000 </r>
       <r>    -8.4627     0.0000   270.0000 </r>
       <r>    -8.3701    21.5994   272.0009 </r>
       <r>    -8.2775    44.1983   276.0955 </r>
       <r>    -8.1848    31.0628   279.2129 </r>
       <r>    -8.0922    32.8551   284.0138 </r>
       <r>    -7.9995    43.0284   288.0000 </r>
       <r>    -7.9069     0.0000   288.0000 </r>
       <r>    -7.8143    26.7235   290.4756 </r>
       <r>    -7.7216     8.4839   292.7859 </r>
       <r>    -7.6290     6.1736   296.5719 </r>
       <r>    -7.5364    73.1421   305.9994 </r>
       <r>    -7.4437     0.0000   306.0000 </r>
       <r>    -7.3511    17.8132   307.6502 </r>
       <r>    -7.2585    29.3994   310.7251 </r>
       <r>    -7.1658     0.0000   314.0000 </r>
       <r>    -7.0732     0.0000   314.0000 </r>
       <r>    -6.9805     0.0006   314.0001 </r>
       <r>    -6.8879    46.6708   318.3235 </r>
       <r>    -6.7953    15.4592   320.0000 </r>
       <r>    -6.7026     0.0000   320.0000 </r>
       <r>    -6.6100     0.0000   320.0000 </r>
       <r>    -6.5174     0.0000   320.0000 </r>
       <r>    -6.4247     0.0000   320.0000 </r>
       <r>    -6.3321    40.4220   323.7446 </r>
       <r>    -6.2395     0.0000   326.0000 </r>
       <r>    -6.1468    38.7574   329.5904 </r>
       <r>    -6.0542    52.5596   335.1731 </r>
       <r>    -5.9615    42.9076   340.0000 </r>
       <r>    -5.8689    41.8229   343.8743 </r>
       <r>    -5.7763    11.5263   345.0678 </r>
       <r>    -5.6836     4.8293   345.5820 </r>
       <r>    -5.5910     3.9501   346.0000 </r>
       <r>    -5.4984    26.3570   348.4416 </r>
       <r>    -5.4057     5.0618   348.9693 </r>
       <r>    -5.3131    16.9951   350.6435 </r>
       <r>    -5.2204    32.3657   353.9993 </r>
       <r>    -5.1278     0.0000   354.0000 </r>
       <r>    -5.0352     0.0000   354.0000 </r>
       <r>    -4.9425     0.0000   354.0000 </r>
       <r>    -4.8499     0.0000   354.0000 </r>
       <r>    -4.7573     0.0000   354.0000 </r>
       <r>    -4.6646     0.0003   354.0000 </r>
       <r>    -4.5720    37.2647   357.4521 </r>
       <r>    -4.4794    23.6384   360.0000 </r>
       <r>    -4.3867     0.0000   360.0000 </r>
       <r>    -4.2941     0.1805   360.0167 </r>
       <r>    -4.2014    19.0352   362.0000 </r>
       <r>    -4.1088     0.0000   362.0000 </r>
       <r>    -4.0162    21.5897   364.0000 </r>
       <r>    -3.9235     0.0000   364.0000 </r>
       <r>    -3.8309     0.0000   364.0000 </r>
       <r>    -3.7383     0.0000   364.0000 </r>
       <r>    -3.6456     0.0000   364.0000 </r>
       <r>    -3.5530     0.0000   364.0000 </r>
       <r>    -3.4603     0.0000   364.0000 </r>
       <r>    -3.3677     0.0000   364.0000 </r>
       <r>    -3.2751     0.0000   364.0000 </r>
       <r>    -3.1824     0.0000   364.0000 </r>
       <r>    -3.0898     0.0000   364.0000 </r>
       <r>    -2.9972     0.0000   364.0000 </r>
       <r>    -2.9045     0.0000   364.0000 </r>
       <r>    -2.8119     0.0000   364.0000 </r>
       <r>    -2.7193     0.0000   364.0000 </r>
       <r>    -2.6266     0.0000   364.0000 </r>
       <r>    -2.5340     0.0000   364.0000 </r>
       <r>    -2.4413     0.0000   364.0000 </r>
       <r>    -2.3487     0.0000   364.0000 </r>
       <r>    -2.2561     0.0000   364.0000 </r>
       <r>    -2.1634     0.0000   364.0000 </r>
       <r>    -2.0708     0.0000   364.0000 </r>
       <r>    -1.9782     0.0000   364.0000 </r>
       <r>    -1.8855    43.1794   368.0000 </r>
       <r>    -1.7929     0.0000   368.0000 </r>
       <r>    -1.7002     0.0000   368.0000 </r>
       <r>    -1.6076     0.0000   368.0000 </r>
       <r>    -1.5150    15.9172   369.4745 </r>
       <r>    -1.4223    25.1877   372.0000 </r>
       <r>    -1.3297    25.8707   374.3966 </r>
       <r>    -1.2371    17.3069   376.0389 </r>
       <r>    -1.1444    52.0499   381.9623 </r>
       <r>    -1.0518     0.0000   382.0000 </r>
       <r>    -0.9592     1.6577   382.1536 </r>
       <r>    -0.8665    23.9083   385.1914 </r>
       <r>    -0.7739     7.8036   385.9911 </r>
       <r>    -0.6812    53.1245   390.9213 </r>
       <r>    -0.5886     0.0000   394.0000 </r>
       <r>    -0.4960    43.1806   398.0001 </r>
       <r>    -0.4033    37.1865   401.4449 </r>
       <r>    -0.3107    30.8554   406.8627 </r>
       <r>    -0.2181    19.5322   410.5765 </r>
       <r>    -0.1254    14.5111   412.1123 </r>
       <r>    -0.0328    35.4562   415.9574 </r>
       <r>     0.0598    41.7521   421.8678 </r>
       <r>     0.1525    43.6895   426.0473 </r>
       <r>     0.2451    60.6881   432.4700 </r>
       <r>     0.3378    39.9407   436.9118 </r>
       <r>     0.4304    45.1193   441.6164 </r>
       <r>     0.5230    85.4204   450.4884 </r>
       <r>     0.6157    82.4726   458.8815 </r>
       <r>     0.7083    93.1726   468.7169 </r>
       <r>     0.8009    87.8815   477.7935 </r>
       <r>     0.8936   101.7354   488.2369 </r>
       <r>     0.9862   112.3020   500.2124 </r>
       <r>     1.0789    90.6044   510.4354 </r>
       <r>     1.1715    10.3397   512.0000 </r>
       <r>     1.2641     0.0000   512.0000 </r>
       <r>     1.3568     0.0000   512.0000 </r>
       <r>     1.4494     0.0000   512.0000 </r>
       <r>     1.5420     0.0000   512.0000 </r>
       <r>     1.6347     0.0000   512.0000 </r>
       <r>     1.7273     0.0000   512.0000 </r>
       <r>     1.8199     0.0000   512.0000 </r>
       <r>     1.9126     0.0000   512.0000 </r>
       <r>     2.0052     0.0000   512.0000 </r>
       <r>     2.0979     0.0000   512.0000 </r>
       <r>     2.1905     0.0000   512.0000 </r>
       <r>     2.2831     0.0000   512.0000 </r>
       <r>     2.3758     0.0000   512.0000 </r>
      </set>
     </set>
    </array>
   </total>
  </dos>
 </calculation>
 <structure name="finalpos" >
  <crystal>
   <varray name="basis" >
    <v>      32.27503577       0.03121801       0.00000000 </v>
    <v>     -16.11037347      27.93846432       0.00000000 </v>
    <v>       0.00000000       0.00000000      20.00000000 </v>
   </varray>
   <i name="volume">  18044.35737943 </i>
   <varray name="rec_basis" >
    <v>       0.03096643       0.01785641       0.00000000 </v>
    <v>      -0.00003460       0.03577300       0.00000000 </v>
    <v>       0.00000000       0.00000000       0.05000000 </v>
   </varray>
  </crystal>
  <varray name="positions" >
   <v>       0.29723807       0.59781574       0.55239391 </v>
   <v>       0.34158417       0.55424495       0.55144566 </v>
   <v>       0.39299751       0.69540391       0.40418564 </v>
   <v>       0.43573787       0.65034175       0.39981767 </v>
   <v>       0.52624165       0.58412633       0.42486693 </v>
   <v>       0.48354383       0.62916232       0.42989240 </v>
   <v>       0.47436864       0.50361145       0.34773075 </v>
   <v>       0.36168895       0.50634275       0.51690371 </v>
   <v>       0.40622474       0.46294440       0.51601860 </v>
   <v>       0.43738597       0.82032118       0.55136237 </v>
   <v>       0.39382411       0.73248018       0.55235112 </v>
   <v>       0.29611677       0.73097725       0.40447390 </v>
   <v>       0.26105215       0.59875913       0.40403918 </v>
   <v>       0.17339142       0.55593906       0.39962792 </v>
   <v>       0.25895532       0.69440898       0.55245853 </v>
   <v>       0.10458999       0.50799428       0.42977593 </v>
   <v>       0.48534146       0.88806611       0.51643039 </v>
   <v>       0.34115890       0.81869976       0.40006030 </v>
   <v>       0.17117982       0.64997476       0.55150370 </v>
   <v>       0.36252807       0.88779543       0.43024086 </v>
   <v>       0.51563242       0.05727671       0.30798510 </v>
   <v>       0.48774161       0.00360869       0.34769682 </v>
   <v>       0.01698824       0.46518483       0.42467032 </v>
   <v>       0.98840135       0.51767149       0.34785396 </v>
   <v>       0.50232332       0.04014899       0.57733116 </v>
   <v>       0.52883570       0.97592749       0.51563874 </v>
   <v>       0.95165152       0.49358155       0.57724197 </v>
   <v>       0.10321854       0.62980034       0.51695865 </v>
   <v>       0.93482412       0.49223587       0.30803739 </v>
   <v>       0.62827000       0.19707446       0.40106625 </v>
   <v>       0.67221345       0.28573912       0.40242092 </v>
   <v>       0.57345538       0.28419791       0.54859706 </v>
   <v>       0.52980224       0.19550501       0.54764245 </v>
   <v>       0.57304914       0.31982792       0.40269255 </v>
   <v>       0.52821516       0.36374678       0.40144619 </v>
   <v>       0.70803471       0.32153688       0.54798249 </v>
   <v>       0.79665599       0.36629720       0.54672860 </v>
   <v>       0.79486659       0.46369752       0.40111216 </v>
   <v>       0.70626793       0.41919099       0.40262628 </v>
   <v>       0.67030168       0.41895348       0.54833760 </v>
   <v>       0.62517546       0.46260716       0.54747681 </v>
   <v>       0.40768898       0.97545888       0.42518074 </v>
   <v>       0.54565596       0.13218392       0.36555126 </v>
   <v>       0.85991665       0.44659710       0.36522745 </v>
   <v>       0.54555514       0.44616114       0.36569798 </v>
   <v>       0.50019478       0.47565626       0.30813365 </v>
   <v>       0.54660360       0.12908655       0.58095161 </v>
   <v>       0.86278999       0.44882721       0.58066679 </v>
   <v>       0.01544297       0.58512911       0.51608860 </v>
   <v>       0.49711401       0.48990337       0.57741924 </v>
   <v>       0.54206662       0.44585547       0.58111621 </v>
   <v>       0.31669076       0.67498888       0.47985493 </v>
   <v>       0.49634841       0.03847517       0.34825118 </v>
   <v>       0.95360621       0.49139543       0.34811223 </v>
   <v>       0.65055718       0.34160812       0.47582503 </v>
   <v>       0.50064815       0.49503890       0.34829636 </v>
   <v>       0.34202197       0.64970795       0.47847427 </v>
   <v>       0.32776661       0.60924282       0.51903462 </v>
   <v>       0.35274322       0.58447065       0.51757276 </v>
   <v>       0.39251420       0.59833387       0.47534849 </v>
   <v>       0.40611755       0.63889727       0.43484014 </v>
   <v>       0.38179282       0.66432178       0.43641819 </v>
   <v>       0.46955563       0.52015575       0.47035353 </v>
   <v>       0.49002325       0.56699483       0.44511966 </v>
   <v>       0.46545598       0.59224623       0.44750878 </v>
   <v>       0.41873912       0.57161644       0.47357909 </v>
   <v>       0.39819977       0.52441842       0.49782090 </v>
   <v>       0.42313611       0.49948728       0.49687178 </v>
   <v>       0.34189617       0.72554340       0.47855711 </v>
   <v>       0.26617230       0.64967489       0.47843471 </v>
   <v>       0.38237560       0.75163390       0.51904208 </v>
   <v>       0.40714376       0.80133571       0.51755070 </v>
   <v>       0.35265072       0.80047646       0.43500767 </v>
   <v>       0.32723012       0.75077426       0.43661636 </v>
   <v>       0.24113702       0.60991513       0.43630503 </v>
   <v>       0.19147591       0.58554728       0.43471177 </v>
   <v>       0.19027067       0.63886032       0.51757787 </v>
   <v>       0.23993870       0.66388946       0.51904390 </v>
   <v>       0.39326710       0.82731397       0.47537230 </v>
   <v>       0.16448769       0.59908982       0.47528793 </v>
   <v>       0.51056244       0.06172986       0.40964811 </v>
   <v>       0.49814761       0.03545290       0.47031078 </v>
   <v>       0.47163859       0.98237722       0.47033284 </v>
   <v>       0.42477209       0.95622398       0.44529619 </v>
   <v>       0.39945896       0.90645288       0.44769096 </v>
   <v>       0.42005271       0.88020211       0.47354950 </v>
   <v>       0.93027552       0.48174872       0.40948552 </v>
   <v>       0.95647698       0.49511628       0.47019724 </v>
   <v>       0.00952305       0.52182862       0.47027837 </v>
   <v>       0.03595884       0.50141285       0.44499477 </v>
   <v>       0.08569650       0.52604817       0.44740793 </v>
   <v>       0.11163379       0.57279058       0.47352223 </v>
   <v>       0.51180658       0.06064573       0.53086925 </v>
   <v>       0.46728562       0.90664216       0.49756680 </v>
   <v>       0.49227427       0.95646342       0.49664870 </v>
   <v>       0.93123726       0.48298355       0.53071506 </v>
   <v>       0.08490959       0.59327467       0.49782382 </v>
   <v>       0.03512414       0.56826113       0.49687480 </v>
   <v>       0.62571640       0.29097224       0.47544979 </v>
   <v>       0.70114589       0.36728190       0.47530317 </v>
   <v>       0.62478687       0.36650530       0.47545749 </v>
   <v>       0.58454482       0.35132678       0.43415125 </v>
   <v>       0.55954770       0.37615301       0.43355463 </v>
   <v>       0.57343664       0.41656275       0.47420255 </v>
   <v>       0.61354502       0.43120236       0.51571021 </v>
   <v>       0.63901039       0.40684453       0.51631492 </v>
   <v>       0.64079372       0.26583785       0.43398187 </v>
   <v>       0.61595077       0.21605352       0.43332445 </v>
   <v>       0.57563499       0.18965311       0.47407996 </v>
   <v>       0.56112739       0.21519125       0.51578219 </v>
   <v>       0.58548915       0.26496550       0.51644521 </v>
   <v>       0.72719518       0.35285002       0.51597024 </v>
   <v>       0.77692751       0.37811666       0.51516790 </v>
   <v>       0.80238559       0.41825840       0.47369756 </v>
   <v>       0.77593988       0.43235125       0.43321961 </v>
   <v>       0.72619590       0.40753500       0.43398220 </v>
   <v>       0.54914387       0.13673175       0.47315882 </v>
   <v>       0.53637767       0.11195848       0.41231184 </v>
   <v>       0.85526317       0.44466220       0.47282755 </v>
   <v>       0.88008176       0.45721399       0.41203249 </v>
   <v>       0.54688019       0.44297515       0.47330470 </v>
   <v>       0.53462496       0.45549571       0.41244075 </v>
   <v>       0.50999840       0.48114480       0.40973323 </v>
   <v>       0.49624439       0.49371879       0.47037336 </v>
   <v>       0.53633513       0.11043993       0.53309067 </v>
   <v>       0.88147957       0.45764779       0.53282142 </v>
   <v>       0.50804488       0.48031686       0.53095618 </v>
   <v>       0.53347027       0.45590481       0.53322321 </v>
  </varray>
 </structure>
</modeling>
