<?xml version="1.0" encoding="ISO-8859-1"?>
<modeling>
 <generator>
  <i name="program" type="string">vasp </i>
  <i name="version" type="string">5.4.4.18Apr17-6-g9f103f2a35  </i>
  <i name="subversion" type="string">(build Jun 07 2020 16:50:00) complex            parallel </i>
  <i name="platform" type="string">LinuxIFC </i>
  <i name="date" type="string">2023 03 01 </i>
  <i name="time" type="string">22:51:13 </i>
 </generator>
 <incar>
  <i type="string" name="SYSTEM">Simulation for cell shape cell volume r</i>
  <i type="int" name="ISTART">     1</i>
  <i type="string" name="PREC">high</i>
  <i type="string" name="ALGO">48</i>
  <i type="int" name="ICHARG">    11</i>
  <i type="int" name="NELM">   200</i>
  <i type="int" name="IBRION">    -1</i>
  <i name="EDIFF">      0.00001000</i>
  <i name="EDIFFG">     -0.01000000</i>
  <i type="int" name="NSW">     0</i>
  <i type="int" name="ISIF">     2</i>
  <i name="ENCUT">    500.00000000</i>
  <i name="POTIM">      0.30000000</i>
  <i type="string" name="LREAL">A</i>
  <i type="int" name="ISMEAR">     0</i>
  <i name="SIGMA">      0.01000000</i>
  <i type="int" name="NWRITE">     0</i>
  <i type="logical" name="LWAVE"> F  </i>
  <i type="logical" name="LCHARG"> F  </i>
  <v type="int" name="KPOINT_BSE">    -1     0     0     0</v>
  <i type="int" name="NELM">   200</i>
  <i type="string" name="GGA">PE</i>
 </incar>
 <structure name="primitive_cell" >
  <crystal>
   <varray name="basis" >
    <v>      21.95413030       0.00077054       0.00000000 </v>
    <v>     -10.97660301      19.08378087       0.00000000 </v>
    <v>       0.00000000       0.00000000      20.00000000 </v>
   </varray>
   <i name="volume">   8379.52539665 </i>
   <varray name="rec_basis" >
    <v>       0.04554860       0.02619863       0.00000000 </v>
    <v>      -0.00000184       0.05239946       0.00000000 </v>
    <v>       0.00000000       0.00000000       0.05000000 </v>
   </varray>
  </crystal>
  <varray name="positions" >
   <v>      -0.23599318       0.40472826      -0.45347473 </v>
   <v>      -0.27422669       0.33435846      -0.45361069 </v>
   <v>      -0.26237036       0.44845601      -0.45327410 </v>
   <v>      -0.15926763       0.43376396      -0.45315791 </v>
   <v>      -0.14306144       0.39381437      -0.44947766 </v>
   <v>      -0.34438146       0.30819240      -0.45373400 </v>
   <v>      -0.33293171       0.41634900      -0.45342998 </v>
   <v>      -0.11609709       0.49994836      -0.45605769 </v>
   <v>      -0.37673224       0.34641846      -0.45352266 </v>
   <v>      -0.36192407       0.46400185      -0.45312920 </v>
   <v>      -0.39192151       0.23172355      -0.45363532 </v>
   <v>      -0.04395573      -0.47414520      -0.45955159 </v>
   <v>      -0.32180687      -0.48006747      -0.44904011 </v>
   <v>      -0.05022621       0.44261965       0.47768850 </v>
   <v>      -0.08561916      -0.39429524      -0.40333753 </v>
   <v>      -0.36882573       0.18849569      -0.45679107 </v>
   <v>      -0.01532757       0.49087807      -0.49562104 </v>
   <v>      -0.44809871       0.21568988      -0.44978096 </v>
   <v>      -0.42820806       0.44132448      -0.45653774 </v>
   <v>       0.00109635      -0.40970530      -0.42704433 </v>
   <v>      -0.03049830      -0.37313131      -0.38894713 </v>
   <v>      -0.29324235       0.15762696      -0.40499894 </v>
   <v>      -0.02932728      -0.38075395      -0.33457262 </v>
   <v>      -0.41516984       0.11661264      -0.46018647 </v>
   <v>       0.05651269      -0.48147232      -0.49823255 </v>
   <v>      -0.36981906      -0.43567781       0.47720987 </v>
   <v>      -0.00150637      -0.31634632      -0.39799111 </v>
   <v>      -0.45367568       0.48789345      -0.46009112 </v>
   <v>      -0.32725673       0.10289922      -0.39001511 </v>
   <v>       0.07451488      -0.38144564      -0.42939813 </v>
   <v>      -0.49251066       0.12311558       0.47738855 </v>
   <v>       0.46533557       0.36687789      -0.40394611 </v>
   <v>      -0.41813237      -0.44866546      -0.49610440 </v>
   <v>      -0.33565106       0.10247572      -0.33562555 </v>
   <v>       0.07978141       0.49226882       0.47442105 </v>
   <v>      -0.47901744       0.08826213      -0.49586738 </v>
   <v>      -0.39567299       0.07154898      -0.42767498 </v>
   <v>       0.10227404      -0.41715902      -0.46679766 </v>
   <v>      -0.29976262       0.07342750      -0.39882241 </v>
   <v>       0.48184055       0.46911062      -0.42757630 </v>
   <v>       0.44468206       0.40119258      -0.38946187 </v>
   <v>       0.09682708      -0.31827089      -0.34056043 </v>
   <v>       0.12085122      -0.31642696      -0.38923740 </v>
   <v>       0.45253917       0.40997231      -0.33510546 </v>
   <v>      -0.44529508      -0.40410508      -0.49867198 </v>
   <v>       0.12898556      -0.26847472      -0.41450110 </v>
   <v>       0.47662645       0.01666856      -0.49795960 </v>
   <v>      -0.44097274      -0.00159607      -0.42952717 </v>
   <v>       0.17344001      -0.39555806      -0.47312397 </v>
   <v>       0.38772741       0.37400040      -0.39838434 </v>
   <v>       0.17291515      -0.31009010      -0.37994859 </v>
   <v>      -0.41858933      -0.35469277       0.47404245 </v>
   <v>       0.45412940      -0.48532010      -0.42981876 </v>
   <v>       0.49528643      -0.02908438      -0.46645270 </v>
   <v>       0.42686574      -0.00641741       0.47508378 </v>
   <v>      -0.39973533      -0.02367762      -0.34074210 </v>
   <v>       0.49034935      -0.42210082      -0.46722333 </v>
   <v>       0.20885301      -0.28923070      -0.49482430 </v>
   <v>       0.22012465      -0.33194971      -0.48536790 </v>
   <v>      -0.42214259      -0.04786663      -0.38926957 </v>
   <v>      -0.38246418      -0.05638394      -0.41460455 </v>
   <v>       0.39101537       0.47465455      -0.34076943 </v>
   <v>       0.38925392       0.49683214      -0.38943715 </v>
   <v>      -0.46784298      -0.09960288      -0.37966501 </v>
   <v>       0.44560854      -0.09997314      -0.47224514 </v>
   <v>       0.46916072      -0.37232754      -0.47337263 </v>
   <v>       0.34084499       0.45747519      -0.41449843 </v>
   <v>       0.29551238      -0.31042368      -0.48719582 </v>
   <v>       0.38361523      -0.45715221      -0.38010134 </v>
   <v>      -0.48383048      -0.13602913      -0.49459693 </v>
   <v>       0.31463139      -0.35987370      -0.48828131 </v>
   <v>       0.46228802      -0.14688925      -0.48466902 </v>
   <v>       0.40561201      -0.38861966      -0.48591823 </v>
   <v>       0.36259324      -0.44225058      -0.49585302 </v>
   <v>       0.33980452      -0.24093619      -0.48668386 </v>
   <v>       0.38431123      -0.33468836      -0.48744345 </v>
   <v>       0.40844675      -0.22200024      -0.48644778 </v>
   <v>       0.43385543      -0.26626911      -0.48695996 </v>
  </varray>
 </structure>
 <varray name="primitive_index" >
  <v type="int" >        1 </v>
  <v type="int" >       67 </v>
  <v type="int" >       69 </v>
  <v type="int" >        5 </v>
  <v type="int" >       38 </v>
  <v type="int" >        2 </v>
  <v type="int" >        3 </v>
  <v type="int" >       74 </v>
  <v type="int" >       68 </v>
  <v type="int" >        4 </v>
  <v type="int" >        6 </v>
  <v type="int" >       17 </v>
  <v type="int" >       39 </v>
  <v type="int" >       59 </v>
  <v type="int" >       48 </v>
  <v type="int" >       75 </v>
  <v type="int" >       30 </v>
  <v type="int" >       37 </v>
  <v type="int" >       73 </v>
  <v type="int" >       18 </v>
  <v type="int" >       20 </v>
  <v type="int" >       54 </v>
  <v type="int" >       49 </v>
  <v type="int" >       22 </v>
  <v type="int" >       29 </v>
  <v type="int" >       57 </v>
  <v type="int" >       50 </v>
  <v type="int" >       12 </v>
  <v type="int" >       24 </v>
  <v type="int" >       19 </v>
  <v type="int" >       61 </v>
  <v type="int" >       42 </v>
  <v type="int" >       27 </v>
  <v type="int" >       55 </v>
  <v type="int" >       60 </v>
  <v type="int" >       31 </v>
  <v type="int" >       23 </v>
  <v type="int" >       28 </v>
  <v type="int" >       56 </v>
  <v type="int" >       13 </v>
  <v type="int" >       15 </v>
  <v type="int" >       53 </v>
  <v type="int" >       21 </v>
  <v type="int" >       43 </v>
  <v type="int" >       26 </v>
  <v type="int" >       52 </v>
  <v type="int" >       36 </v>
  <v type="int" >       33 </v>
  <v type="int" >       77 </v>
  <v type="int" >       44 </v>
  <v type="int" >       51 </v>
  <v type="int" >       58 </v>
  <v type="int" >       14 </v>
  <v type="int" >       35 </v>
  <v type="int" >       66 </v>
  <v type="int" >       65 </v>
  <v type="int" >       25 </v>
  <v type="int" >       40 </v>
  <v type="int" >       11 </v>
  <v type="int" >       34 </v>
  <v type="int" >       64 </v>
  <v type="int" >       47 </v>
  <v type="int" >       16 </v>
  <v type="int" >       63 </v>
  <v type="int" >       78 </v>
  <v type="int" >       76 </v>
  <v type="int" >       46 </v>
  <v type="int" >        7 </v>
  <v type="int" >       45 </v>
  <v type="int" >       62 </v>
  <v type="int" >       72 </v>
  <v type="int" >       32 </v>
  <v type="int" >       10 </v>
  <v type="int" >       41 </v>
  <v type="int" >       70 </v>
  <v type="int" >        9 </v>
  <v type="int" >        8 </v>
  <v type="int" >       71 </v>
 </varray>
 <kpoints>
  <generation param="listgenerated">
   <i name="divisions" type="int">      20 </i>
   <v>       0.00000000       0.00000000       0.00000000 </v>
   <v>       0.50000000       0.00000000       0.00000000 </v>
   <v>       0.33333333       0.33333333       0.00000000 </v>
   <v>       0.00000000       0.00000000       0.00000000 </v>
  </generation>
  <varray name="kpointlist" >
   <v>       0.00000000       0.00000000       0.00000000 </v>
   <v>       0.02631579       0.00000000       0.00000000 </v>
   <v>       0.05263158       0.00000000       0.00000000 </v>
   <v>       0.07894737       0.00000000       0.00000000 </v>
   <v>       0.10526316       0.00000000       0.00000000 </v>
   <v>       0.13157895       0.00000000       0.00000000 </v>
   <v>       0.15789474       0.00000000       0.00000000 </v>
   <v>       0.18421053       0.00000000       0.00000000 </v>
   <v>       0.21052632       0.00000000       0.00000000 </v>
   <v>       0.23684211       0.00000000       0.00000000 </v>
   <v>       0.26315789       0.00000000       0.00000000 </v>
   <v>       0.28947368       0.00000000       0.00000000 </v>
   <v>       0.31578947       0.00000000       0.00000000 </v>
   <v>       0.34210526       0.00000000       0.00000000 </v>
   <v>       0.36842105       0.00000000       0.00000000 </v>
   <v>       0.39473684       0.00000000       0.00000000 </v>
   <v>       0.42105263       0.00000000       0.00000000 </v>
   <v>       0.44736842       0.00000000       0.00000000 </v>
   <v>       0.47368421       0.00000000       0.00000000 </v>
   <v>       0.50000000       0.00000000       0.00000000 </v>
   <v>       0.50000000       0.00000000       0.00000000 </v>
   <v>       0.49122807       0.01754386       0.00000000 </v>
   <v>       0.48245614       0.03508772       0.00000000 </v>
   <v>       0.47368421       0.05263158       0.00000000 </v>
   <v>       0.46491228       0.07017544       0.00000000 </v>
   <v>       0.45614035       0.08771930       0.00000000 </v>
   <v>       0.44736842       0.10526316       0.00000000 </v>
   <v>       0.43859649       0.12280702       0.00000000 </v>
   <v>       0.42982456       0.14035088       0.00000000 </v>
   <v>       0.42105263       0.15789474       0.00000000 </v>
   <v>       0.41228070       0.17543860       0.00000000 </v>
   <v>       0.40350877       0.19298246       0.00000000 </v>
   <v>       0.39473684       0.21052632       0.00000000 </v>
   <v>       0.38596491       0.22807018       0.00000000 </v>
   <v>       0.37719298       0.24561404       0.00000000 </v>
   <v>       0.36842105       0.26315789       0.00000000 </v>
   <v>       0.35964912       0.28070175       0.00000000 </v>
   <v>       0.35087719       0.29824561       0.00000000 </v>
   <v>       0.34210526       0.31578947       0.00000000 </v>
   <v>       0.33333333       0.33333333       0.00000000 </v>
   <v>       0.33333333       0.33333333       0.00000000 </v>
   <v>       0.31578947       0.31578947       0.00000000 </v>
   <v>       0.29824561       0.29824561       0.00000000 </v>
   <v>       0.28070175       0.28070175       0.00000000 </v>
   <v>       0.26315789       0.26315789       0.00000000 </v>
   <v>       0.24561404       0.24561404       0.00000000 </v>
   <v>       0.22807018       0.22807018       0.00000000 </v>
   <v>       0.21052632       0.21052632       0.00000000 </v>
   <v>       0.19298246       0.19298246       0.00000000 </v>
   <v>       0.17543860       0.17543860       0.00000000 </v>
   <v>       0.15789474       0.15789474       0.00000000 </v>
   <v>       0.14035088       0.14035088       0.00000000 </v>
   <v>       0.12280702       0.12280702       0.00000000 </v>
   <v>       0.10526316       0.10526316       0.00000000 </v>
   <v>       0.08771930       0.08771930       0.00000000 </v>
   <v>       0.07017544       0.07017544       0.00000000 </v>
   <v>       0.05263158       0.05263158       0.00000000 </v>
   <v>       0.03508772       0.03508772       0.00000000 </v>
   <v>       0.01754386       0.01754386       0.00000000 </v>
   <v>       0.00000000       0.00000000       0.00000000 </v>
  </varray>
  <varray name="weights" >
   <v>       0.01666667 </v>
   <v>       0.01666667 </v>
   <v>       0.01666667 </v>
   <v>       0.01666667 </v>
   <v>       0.01666667 </v>
   <v>       0.01666667 </v>
   <v>       0.01666667 </v>
   <v>       0.01666667 </v>
   <v>       0.01666667 </v>
   <v>       0.01666667 </v>
   <v>       0.01666667 </v>
   <v>       0.01666667 </v>
   <v>       0.01666667 </v>
   <v>       0.01666667 </v>
   <v>       0.01666667 </v>
   <v>       0.01666667 </v>
   <v>       0.01666667 </v>
   <v>       0.01666667 </v>
   <v>       0.01666667 </v>
   <v>       0.01666667 </v>
   <v>       0.01666667 </v>
   <v>       0.01666667 </v>
   <v>       0.01666667 </v>
   <v>       0.01666667 </v>
   <v>       0.01666667 </v>
   <v>       0.01666667 </v>
   <v>       0.01666667 </v>
   <v>       0.01666667 </v>
   <v>       0.01666667 </v>
   <v>       0.01666667 </v>
   <v>       0.01666667 </v>
   <v>       0.01666667 </v>
   <v>       0.01666667 </v>
   <v>       0.01666667 </v>
   <v>       0.01666667 </v>
   <v>       0.01666667 </v>
   <v>       0.01666667 </v>
   <v>       0.01666667 </v>
   <v>       0.01666667 </v>
   <v>       0.01666667 </v>
   <v>       0.01666667 </v>
   <v>       0.01666667 </v>
   <v>       0.01666667 </v>
   <v>       0.01666667 </v>
   <v>       0.01666667 </v>
   <v>       0.01666667 </v>
   <v>       0.01666667 </v>
   <v>       0.01666667 </v>
   <v>       0.01666667 </v>
   <v>       0.01666667 </v>
   <v>       0.01666667 </v>
   <v>       0.01666667 </v>
   <v>       0.01666667 </v>
   <v>       0.01666667 </v>
   <v>       0.01666667 </v>
   <v>       0.01666667 </v>
   <v>       0.01666667 </v>
   <v>       0.01666667 </v>
   <v>       0.01666667 </v>
   <v>       0.01666667 </v>
  </varray>
 </kpoints>
 <parameters>
  <separator name="general" >
   <i type="string" name="SYSTEM">Simulation for cell shape cell volume r</i>
   <i type="logical" name="LCOMPAT"> F  </i>
  </separator>
  <separator name="electronic" >
   <i type="string" name="PREC">high</i>
   <i name="ENMAX">    500.00000000</i>
   <i name="ENAUG">    644.87300000</i>
   <i name="EDIFF">      0.00001000</i>
   <i type="int" name="IALGO">    38</i>
   <i type="int" name="IWAVPR">    10</i>
   <i type="int" name="NBANDS">   160</i>
   <i name="NELECT">    234.00000000</i>
   <i type="int" name="TURBO">     0</i>
   <i type="int" name="IRESTART">     0</i>
   <i type="int" name="NREBOOT">     0</i>
   <i type="int" name="NMIN">     0</i>
   <i name="EREF">      0.00000000</i>
   <separator name="electronic smearing" >
    <i type="int" name="ISMEAR">     0</i>
    <i name="SIGMA">      0.01000000</i>
    <i name="KSPACING">      0.50000000</i>
    <i type="logical" name="KGAMMA"> T  </i>
   </separator>
   <separator name="electronic projectors" >
    <i type="logical" name="LREAL"> T  </i>
    <v name="ROPT">     -0.00040000     -0.00040000     -0.00040000</v>
    <i type="int" name="LMAXPAW">  -100</i>
    <i type="int" name="LMAXMIX">     2</i>
    <i type="logical" name="NLSPLINE"> F  </i>
   </separator>
   <separator name="electronic startup" >
    <i type="int" name="ISTART">     1</i>
    <i type="int" name="ICHARG">    11</i>
    <i type="int" name="INIWAV">     1</i>
   </separator>
   <separator name="electronic spin" >
    <i type="int" name="ISPIN">     1</i>
    <i type="logical" name="LNONCOLLINEAR"> F  </i>
    <v name="MAGMOM">      1.00000000      1.00000000      1.00000000      1.00000000      1.00000000      1.00000000      1.00000000      1.00000000      1.00000000      1.00000000      1.00000000      1.00000000      1.00000000      1.00000000      1.00000000      1.00000000      1.00000000      1.00000000      1.00000000      1.00000000
      1.00000000      1.00000000      1.00000000      1.00000000      1.00000000      1.00000000      1.00000000      1.00000000      1.00000000      1.00000000      1.00000000      1.00000000      1.00000000      1.00000000      1.00000000      1.00000000      1.00000000      1.00000000      1.00000000      1.00000000
      1.00000000      1.00000000      1.00000000      1.00000000      1.00000000      1.00000000      1.00000000      1.00000000      1.00000000      1.00000000      1.00000000      1.00000000      1.00000000      1.00000000      1.00000000      1.00000000      1.00000000      1.00000000      1.00000000      1.00000000
      1.00000000      1.00000000      1.00000000      1.00000000      1.00000000      1.00000000      1.00000000      1.00000000      1.00000000      1.00000000      1.00000000      1.00000000      1.00000000      1.00000000      1.00000000      1.00000000      1.00000000      1.00000000</v>
    <i name="NUPDOWN">     -1.00000000</i>
    <i type="logical" name="LSORBIT"> F  </i>
    <v name="SAXIS">      0.00000000      0.00000000      1.00000000</v>
    <i type="logical" name="LSPIRAL"> F  </i>
    <v name="QSPIRAL">      0.00000000      0.00000000      0.00000000</v>
    <i type="logical" name="LZEROZ"> F  </i>
   </separator>
   <separator name="electronic exchange-correlation" >
    <i type="logical" name="LASPH"> F  </i>
    <i type="logical" name="LMETAGGA"> F  </i>
   </separator>
   <separator name="electronic convergence" >
    <i type="int" name="NELM">   200</i>
    <i type="int" name="NELMDL">     0</i>
    <i type="int" name="NELMIN">     2</i>
    <i name="ENINI">    500.00000000</i>
    <separator name="electronic convergence detail" >
     <i type="logical" name="LDIAG"> T  </i>
     <i type="logical" name="LSUBROT"> F  </i>
     <i name="WEIMIN">      0.00000000</i>
     <i name="EBREAK">      0.00000002</i>
     <i name="DEPER">      0.30000000</i>
     <i type="int" name="NRMM">     4</i>
     <i name="TIME">      0.40000000</i>
    </separator>
   </separator>
   <separator name="electronic mixer" >
    <i name="AMIX">      0.40000000</i>
    <i name="BMIX">      1.00000000</i>
    <i name="AMIN">      0.10000000</i>
    <i name="AMIX_MAG">      1.60000000</i>
    <i name="BMIX_MAG">      1.00000000</i>
    <separator name="electronic mixer details" >
     <i type="int" name="IMIX">     4</i>
     <i type="logical" name="MIXFIRST"> F  </i>
     <i type="int" name="MAXMIX">   -45</i>
     <i name="WC">    100.00000000</i>
     <i type="int" name="INIMIX">     1</i>
     <i type="int" name="MIXPRE">     1</i>
     <i type="int" name="MREMOVE">     5</i>
    </separator>
   </separator>
   <separator name="electronic dipolcorrection" >
    <i type="logical" name="LDIPOL"> F  </i>
    <i type="logical" name="LMONO"> F  </i>
    <i type="int" name="IDIPOL">     0</i>
    <i name="EPSILON">      1.00000000</i>
    <v name="DIPOL">   -100.00000000   -100.00000000   -100.00000000</v>
    <i name="EFIELD">      0.00000000</i>
   </separator>
  </separator>
  <separator name="grids" >
   <i type="int" name="NGX">   160</i>
   <i type="int" name="NGY">   162</i>
   <i type="int" name="NGZ">   150</i>
   <i type="int" name="NGXF">   250</i>
   <i type="int" name="NGYF">   250</i>
   <i type="int" name="NGZF">   224</i>
   <i type="logical" name="ADDGRID"> F  </i>
  </separator>
  <separator name="ionic" >
   <i type="int" name="NSW">     0</i>
   <i type="int" name="IBRION">    -1</i>
   <i type="int" name="MDALGO">     0</i>
   <i type="int" name="ISIF">     2</i>
   <i name="PSTRESS">      0.00000000</i>
   <i name="EDIFFG">     -0.01000000</i>
   <i type="int" name="NFREE">     0</i>
   <i name="POTIM">      0.30000000</i>
   <i name="SMASS">     -3.00000000</i>
   <i name="SCALEE">      1.00000000</i>
  </separator>
  <separator name="ionic md" >
   <i name="TEBEG">      0.00010000</i>
   <i name="TEEND">      0.00010000</i>
   <i type="int" name="NBLOCK">     1</i>
   <i type="int" name="KBLOCK">     1</i>
   <i type="int" name="NPACO">   256</i>
   <i name="APACO">     16.00000000</i>
  </separator>
  <separator name="symmetry" >
   <i type="int" name="ISYM">     2</i>
   <i name="SYMPREC">      0.00001000</i>
  </separator>
  <separator name="dos" >
   <i type="int" name="LORBIT">     0</i>
   <v name="RWIGS">     -1.00000000     -1.00000000     -1.00000000</v>
   <i type="int" name="NEDOS">   301</i>
   <i name="EMIN">     10.00000000</i>
   <i name="EMAX">    -10.00000000</i>
   <i name="EFERMI">      0.00000000</i>
  </separator>
  <separator name="writing" >
   <i type="int" name="NWRITE">     0</i>
   <i type="logical" name="LWAVE"> F  </i>
   <i type="logical" name="LDOWNSAMPLE"> F  </i>
   <i type="logical" name="LCHARG"> F  </i>
   <i type="logical" name="LPARD"> F  </i>
   <i type="logical" name="LVTOT"> F  </i>
   <i type="logical" name="LVHAR"> F  </i>
   <i type="logical" name="LELF"> F  </i>
   <i type="logical" name="LOPTICS"> F  </i>
   <v name="STM">      0.00000000      0.00000000      0.00000000      0.00000000      0.00000000      0.00000000      0.00000000</v>
  </separator>
  <separator name="performance" >
   <i type="int" name="NPAR">    16</i>
   <i type="int" name="NSIM">     4</i>
   <i type="int" name="NBLK">    -1</i>
   <i type="logical" name="LPLANE"> T  </i>
   <i type="logical" name="LSCALAPACK"> T  </i>
   <i type="logical" name="LSCAAWARE"> F  </i>
   <i type="logical" name="LSCALU"> F  </i>
   <i type="logical" name="LASYNC"> F  </i>
   <i type="logical" name="LORBITALREAL"> F  </i>
  </separator>
  <separator name="miscellaneous" >
   <i type="int" name="IDIOT">     3</i>
   <i type="int" name="ISPECIAL">     0</i>
   <i type="logical" name="LMUSIC"> F  </i>
   <v name="POMASS">     12.01100000      1.00000000     14.00100000</v>
   <v name="DARWINR">      0.00000000      0.00000000      0.00000000</v>
   <v name="DARWINV">      1.00000000      1.00000000      1.00000000</v>
   <i type="logical" name="LCORR"> T  </i>
  </separator>
  <i type="logical" name="GGA_COMPAT"> T  </i>
  <i type="logical" name="LBERRY"> F  </i>
  <i type="int" name="ICORELEVEL">     0</i>
  <i type="logical" name="LDAU"> F  </i>
  <i type="int" name="I_CONSTRAINED_M">     0</i>
  <separator name="electronic exchange-correlation" >
   <i type="string" name="GGA">PE</i>
   <i type="int" name="VOSKOWN">     0</i>
   <i type="logical" name="LHFCALC"> F  </i>
   <i type="string" name="PRECFOCK"></i>
   <i type="logical" name="LSYMGRAD"> F  </i>
   <i type="logical" name="LHFONE"> F  </i>
   <i type="logical" name="LRHFCALC"> F  </i>
   <i type="logical" name="LTHOMAS"> F  </i>
   <i type="logical" name="LMODELHF"> F  </i>
   <i name="ENCUT4O">     -1.00000000</i>
   <i type="int" name="EXXOEP">     0</i>
   <i type="int" name="FOURORBIT">     0</i>
   <i name="AEXX">      0.00000000</i>
   <i name="HFALPHA">      0.00000000</i>
   <i name="MCALPHA">      0.00000000</i>
   <i name="ALDAX">      1.00000000</i>
   <i name="AGGAX">      1.00000000</i>
   <i name="ALDAC">      1.00000000</i>
   <i name="AGGAC">      1.00000000</i>
   <i type="int" name="NKREDX">     1</i>
   <i type="int" name="NKREDY">     1</i>
   <i type="int" name="NKREDZ">     1</i>
   <i type="logical" name="SHIFTRED"> F  </i>
   <i type="logical" name="ODDONLY"> F  </i>
   <i type="logical" name="EVENONLY"> F  </i>
   <i type="int" name="LMAXFOCK">     0</i>
   <i type="int" name="NMAXFOCKAE">     0</i>
   <i type="logical" name="LFOCKAEDFT"> F  </i>
   <i name="HFSCREEN">      0.00000000</i>
   <i name="HFSCREENC">      0.00000000</i>
   <i type="int" name="NBANDSGWLOW">     0</i>
  </separator>
  <separator name="vdW DFT" >
   <i type="logical" name="LUSE_VDW"> F  </i>
   <i name="Zab_VDW">     -0.84910000</i>
   <i name="PARAM1">      0.12340000</i>
   <i name="PARAM2">      1.00000000</i>
   <i name="PARAM3">      0.00000000</i>
  </separator>
  <separator name="model GW" >
   <i type="int" name="MODEL_GW">     0</i>
   <i name="MODEL_EPS0">     64.45788767</i>
   <i name="MODEL_ALPHA">      1.00000000</i>
  </separator>
  <separator name="linear response parameters" >
   <i type="logical" name="LEPSILON"> F  </i>
   <i type="logical" name="LRPA"> F  </i>
   <i type="logical" name="LNABLA"> F  </i>
   <i type="logical" name="LVEL"> F  </i>
   <i type="int" name="KINTER">     0</i>
   <i name="CSHIFT">      0.10000000</i>
   <i name="OMEGAMAX">     -1.00000000</i>
   <i name="DEG_THRESHOLD">      0.00200000</i>
   <i name="RTIME">     -0.10000000</i>
   <i name="WPLASMAI">      0.00000000</i>
   <v name="DFIELD">      0.00000000      0.00000000      0.00000000</v>
   <v name="WPLASMA">      0.00000000      0.00000000      0.00000000      0.00000000      0.00000000      0.00000000      0.00000000      0.00000000      0.00000000</v>
  </separator>
  <separator name="orbital magnetization" >
   <i type="logical" name="NUCIND"> F  </i>
   <v name="MAGPOS">      0.00000000      0.00000000      0.00000000</v>
   <i type="logical" name="LNICSALL"> T  </i>
   <i type="logical" name="ORBITALMAG"> F  </i>
   <i type="logical" name="LMAGBLOCH"> F  </i>
   <i type="logical" name="LCHIMAG"> F  </i>
   <i type="logical" name="LGAUGE"> T  </i>
   <i type="int" name="MAGATOM">     0</i>
   <v name="MAGDIPOL">      0.00000000      0.00000000      0.00000000</v>
   <v name="AVECCONST">      0.00000000      0.00000000      0.00000000</v>
  </separator>
  <separator name="response functions" >
   <i type="logical" name="LADDER"> F  </i>
   <i type="logical" name="LRPAFORCE"> F  </i>
   <i type="logical" name="LFXC"> F  </i>
   <i type="logical" name="LHARTREE"> T  </i>
   <i type="int" name="IBSE">     0</i>
   <v type="int" name="KPOINT">    -1     0     0     0</v>
   <i type="logical" name="LTCTE"> F  </i>
   <i type="logical" name="LTETE"> F  </i>
   <i type="logical" name="LTRIPLET"> F  </i>
   <i type="logical" name="LFXCEPS"> F  </i>
   <i type="logical" name="LFXHEG"> F  </i>
   <i type="int" name="NATURALO">     2</i>
   <i type="logical" name="L2ORDER"> F  </i>
   <i type="logical" name="LMP2LT"> F  </i>
   <i type="logical" name="LUSEW"> F  </i>
   <i name="ENCUTGW">     -2.00000000</i>
   <i name="ENCUTGWSOFT">     -2.00000000</i>
   <i name="ENCUTLF">     -1.00000000</i>
   <i type="int" name="LMAXMP2">    -1</i>
   <i name="SCISSOR">      0.00000000</i>
   <i type="int" name="NOMEGA">     0</i>
   <i type="int" name="NOMEGAR">     0</i>
   <i type="int" name="NBANDSGW">    -1</i>
   <i type="int" name="NBANDSO">    -1</i>
   <i type="int" name="NBANDSV">    -1</i>
   <i type="int" name="NELM">   200</i>
   <i type="int" name="NELMHF">     1</i>
   <i type="int" name="DIM">     3</i>
   <i type="int" name="ANTIRES">     0</i>
   <i name="OMEGAMAX">    -30.00000000</i>
   <i name="OMEGAMIN">    -30.00000000</i>
   <i name="OMEGATL">   -200.00000000</i>
   <i type="int" name="OMEGAGRID">   140</i>
   <i name="CSHIFT">     -0.10000000</i>
   <i type="logical" name="SELFENERGY"> F  </i>
   <i type="logical" name="LSPECTRAL"> F  </i>
   <i type="logical" name="LSPECTRALGW"> F  </i>
   <i type="logical" name="LSINGLES"> F  </i>
   <i type="logical" name="LFERMIGW"> F  </i>
   <i type="logical" name="ODDONLYGW"> F  </i>
   <i type="logical" name="EVENONLYGW"> F  </i>
   <i type="int" name="NKREDLFX">     1</i>
   <i type="int" name="NKREDLFY">     1</i>
   <i type="int" name="NKREDLFZ">     1</i>
   <i type="int" name="MAXMEM">  2800</i>
   <i type="int" name="TELESCOPE">     0</i>
   <i type="int" name="TAUPAR">     1</i>
   <i type="int" name="OMEGAPAR">    -1</i>
   <i name="LAMBDA">      1.00000000</i>
  </separator>
  <separator name="External order field" >
   <i name="OFIELD_KAPPA">      0.00000000</i>
   <v name="OFIELD_K">      0.00000000      0.00000000      0.00000000</v>
   <i name="OFIELD_Q6_NEAR">      0.00000000</i>
   <i name="OFIELD_Q6_FAR">      0.00000000</i>
   <i name="OFIELD_A">      0.00000000</i>
  </separator>
  <separator name="solvation model" >
   <i type="logical" name="LSOL"> F  </i>
  </separator>
 </parameters>
 <atominfo>
  <atoms>      78 </atoms>
  <types>       3 </types>
  <array name="atoms" >
   <dimension dim="1">ion</dimension>
   <field type="string">element</field>
   <field type="int">atomtype</field>
   <set>
    <rc><c>C </c><c>   1</c></rc>
    <rc><c>C </c><c>   1</c></rc>
    <rc><c>C </c><c>   1</c></rc>
    <rc><c>C </c><c>   1</c></rc>
    <rc><c>C </c><c>   1</c></rc>
    <rc><c>C </c><c>   1</c></rc>
    <rc><c>C </c><c>   1</c></rc>
    <rc><c>C </c><c>   1</c></rc>
    <rc><c>C </c><c>   1</c></rc>
    <rc><c>C </c><c>   1</c></rc>
    <rc><c>C </c><c>   1</c></rc>
    <rc><c>C </c><c>   1</c></rc>
    <rc><c>C </c><c>   1</c></rc>
    <rc><c>C </c><c>   1</c></rc>
    <rc><c>C </c><c>   1</c></rc>
    <rc><c>C </c><c>   1</c></rc>
    <rc><c>C </c><c>   1</c></rc>
    <rc><c>C </c><c>   1</c></rc>
    <rc><c>C </c><c>   1</c></rc>
    <rc><c>C </c><c>   1</c></rc>
    <rc><c>C </c><c>   1</c></rc>
    <rc><c>C </c><c>   1</c></rc>
    <rc><c>C </c><c>   1</c></rc>
    <rc><c>C </c><c>   1</c></rc>
    <rc><c>C </c><c>   1</c></rc>
    <rc><c>C </c><c>   1</c></rc>
    <rc><c>C </c><c>   1</c></rc>
    <rc><c>C </c><c>   1</c></rc>
    <rc><c>C </c><c>   1</c></rc>
    <rc><c>C </c><c>   1</c></rc>
    <rc><c>C </c><c>   1</c></rc>
    <rc><c>C </c><c>   1</c></rc>
    <rc><c>C </c><c>   1</c></rc>
    <rc><c>C </c><c>   1</c></rc>
    <rc><c>C </c><c>   1</c></rc>
    <rc><c>C </c><c>   1</c></rc>
    <rc><c>H </c><c>   2</c></rc>
    <rc><c>H </c><c>   2</c></rc>
    <rc><c>H </c><c>   2</c></rc>
    <rc><c>H </c><c>   2</c></rc>
    <rc><c>H </c><c>   2</c></rc>
    <rc><c>H </c><c>   2</c></rc>
    <rc><c>H </c><c>   2</c></rc>
    <rc><c>H </c><c>   2</c></rc>
    <rc><c>H </c><c>   2</c></rc>
    <rc><c>H </c><c>   2</c></rc>
    <rc><c>H </c><c>   2</c></rc>
    <rc><c>H </c><c>   2</c></rc>
    <rc><c>H </c><c>   2</c></rc>
    <rc><c>H </c><c>   2</c></rc>
    <rc><c>H </c><c>   2</c></rc>
    <rc><c>H </c><c>   2</c></rc>
    <rc><c>H </c><c>   2</c></rc>
    <rc><c>H </c><c>   2</c></rc>
    <rc><c>H </c><c>   2</c></rc>
    <rc><c>H </c><c>   2</c></rc>
    <rc><c>H </c><c>   2</c></rc>
    <rc><c>H </c><c>   2</c></rc>
    <rc><c>H </c><c>   2</c></rc>
    <rc><c>H </c><c>   2</c></rc>
    <rc><c>H </c><c>   2</c></rc>
    <rc><c>H </c><c>   2</c></rc>
    <rc><c>H </c><c>   2</c></rc>
    <rc><c>H </c><c>   2</c></rc>
    <rc><c>H </c><c>   2</c></rc>
    <rc><c>H </c><c>   2</c></rc>
    <rc><c>N </c><c>   3</c></rc>
    <rc><c>N </c><c>   3</c></rc>
    <rc><c>N </c><c>   3</c></rc>
    <rc><c>N </c><c>   3</c></rc>
    <rc><c>N </c><c>   3</c></rc>
    <rc><c>N </c><c>   3</c></rc>
    <rc><c>N </c><c>   3</c></rc>
    <rc><c>N </c><c>   3</c></rc>
    <rc><c>N </c><c>   3</c></rc>
    <rc><c>N </c><c>   3</c></rc>
    <rc><c>N </c><c>   3</c></rc>
    <rc><c>N </c><c>   3</c></rc>
   </set>
  </array>
  <array name="atomtypes" >
   <dimension dim="1">type</dimension>
   <field type="int">atomspertype</field>
   <field type="string">element</field>
   <field>mass</field>
   <field>valence</field>
   <field type="string">pseudopotential</field>
   <set>
    <rc><c>  36</c><c>C </c><c>     12.01100000</c><c>      4.00000000</c><c>  PAW_PBE C 08Apr2002                   </c></rc>
    <rc><c>  30</c><c>H </c><c>      1.00000000</c><c>      1.00000000</c><c>  PAW_PBE H 15Jun2001                   </c></rc>
    <rc><c>  12</c><c>N </c><c>     14.00100000</c><c>      5.00000000</c><c>  PAW_PBE N 08Apr2002                   </c></rc>
   </set>
  </array>
 </atominfo>
 <structure name="initialpos" >
  <crystal>
   <varray name="basis" >
    <v>      21.95413030       0.00077054       0.00000000 </v>
    <v>     -10.97660301      19.08378087       0.00000000 </v>
    <v>       0.00000000       0.00000000      20.00000000 </v>
   </varray>
   <i name="volume">   8379.52539665 </i>
   <varray name="rec_basis" >
    <v>       0.04554860       0.02619863       0.00000000 </v>
    <v>      -0.00000184       0.05239946       0.00000000 </v>
    <v>       0.00000000       0.00000000       0.05000000 </v>
   </varray>
  </crystal>
  <varray name="positions" >
   <v>       0.76400682       0.40472826       0.54652527 </v>
   <v>       0.65561854       0.30819240       0.54626600 </v>
   <v>       0.66706829       0.41634900       0.54657002 </v>
   <v>       0.63807593       0.46400185       0.54687080 </v>
   <v>       0.84073237       0.43376396       0.54684209 </v>
   <v>       0.60807849       0.23172355       0.54636468 </v>
   <v>       0.29551238       0.68957632       0.51280418 </v>
   <v>       0.40844675       0.77799976       0.51355222 </v>
   <v>       0.38431123       0.66531164       0.51255655 </v>
   <v>       0.40561201       0.61138034       0.51408177 </v>
   <v>       0.22012465       0.66805029       0.51463210 </v>
   <v>       0.54632432       0.48789345       0.53990888 </v>
   <v>       0.48184055       0.46911062       0.57242370 </v>
   <v>       0.45412940       0.51467990       0.57018124 </v>
   <v>       0.44468206       0.40119258       0.61053813 </v>
   <v>       0.38925392       0.49683214       0.61056285 </v>
   <v>       0.95604427       0.52585480       0.54044841 </v>
   <v>       0.00109635       0.59029470       0.57295567 </v>
   <v>       0.07451488       0.61855436       0.57060187 </v>
   <v>       0.96950170       0.62686869       0.61105287 </v>
   <v>       0.12085122       0.68357304       0.61076260 </v>
   <v>       0.58483016       0.11661264       0.53981353 </v>
   <v>       0.60432701       0.07154898       0.57232502 </v>
   <v>       0.67274327       0.10289922       0.60998489 </v>
   <v>       0.49034935       0.57789918       0.53277667 </v>
   <v>       0.55470492       0.59589492       0.50132802 </v>
   <v>       0.58186763       0.55133454       0.50389560 </v>
   <v>       0.10227404       0.58284098       0.53320234 </v>
   <v>       0.05651269       0.51852768       0.50176745 </v>
   <v>       0.98467243       0.49087807       0.50437896 </v>
   <v>       0.52098256       0.08826213       0.50413262 </v>
   <v>       0.46228802       0.85311075       0.51533098 </v>
   <v>       0.55902726       0.99840393       0.57047283 </v>
   <v>       0.57785741       0.95213337       0.61073043 </v>
   <v>       0.49528643       0.97091562       0.53354730 </v>
   <v>       0.47662645       0.01666856       0.50204040 </v>
   <v>       0.55190129       0.21568988       0.55021904 </v>
   <v>       0.85693856       0.39381437       0.55052234 </v>
   <v>       0.67819313       0.51993253       0.55095989 </v>
   <v>       0.20885301       0.71076930       0.50517570 </v>
   <v>       0.36259324       0.55774942       0.50414698 </v>
   <v>       0.46533557       0.36687789       0.59605389 </v>
   <v>       0.45253917       0.40997231       0.66489454 </v>
   <v>       0.38772741       0.37400040       0.60161566 </v>
   <v>       0.38361523       0.54284779       0.61989866 </v>
   <v>       0.34084499       0.45747519       0.58550157 </v>
   <v>       0.39101537       0.47465455       0.65923057 </v>
   <v>       0.91438084       0.60570476       0.59666247 </v>
   <v>       0.97067272       0.61924605       0.66542738 </v>
   <v>       0.99849363       0.68365368       0.60200889 </v>
   <v>       0.17291515       0.68990990       0.62005141 </v>
   <v>       0.12898556       0.73152528       0.58549890 </v>
   <v>       0.09682708       0.68172911       0.65943957 </v>
   <v>       0.70675765       0.15762696       0.59500106 </v>
   <v>       0.66434894       0.10247572       0.66437445 </v>
   <v>       0.70023738       0.07342750       0.60117759 </v>
   <v>       0.63018094       0.56432219       0.47720987 </v>
   <v>       0.58141067       0.64530723       0.47404245 </v>
   <v>       0.94977379       0.44261965       0.47768850 </v>
   <v>       0.07978141       0.49226882       0.47442105 </v>
   <v>       0.50748934       0.12311558       0.47738855 </v>
   <v>       0.51616952       0.86397087       0.50540307 </v>
   <v>       0.53215702       0.90039712       0.62033499 </v>
   <v>       0.61753582       0.94361606       0.58539545 </v>
   <v>       0.60026467       0.97632238       0.65925790 </v>
   <v>       0.42686574       0.99358259       0.47508378 </v>
   <v>       0.72577331       0.33435846       0.54638931 </v>
   <v>       0.62326776       0.34641846       0.54647734 </v>
   <v>       0.73762964       0.44845601       0.54672590 </v>
   <v>       0.33980452       0.75906381       0.51331614 </v>
   <v>       0.43385543       0.73373089       0.51304004 </v>
   <v>       0.31463139       0.64012630       0.51171869 </v>
   <v>       0.57179194       0.44132448       0.54346226 </v>
   <v>       0.88390291       0.49994836       0.54394231 </v>
   <v>       0.63117427       0.18849569       0.54320893 </v>
   <v>       0.46916072       0.62767246       0.52662737 </v>
   <v>       0.17344001       0.60444194       0.52687603 </v>
   <v>       0.44560854       0.90002686       0.52775486 </v>
  </varray>
 </structure>
 <calculation>
  <scstep>
   <time name="dav">   98.55   99.62</time>
   <time name="total">   98.72   99.80</time>
   <energy>
    <i name="alphaZ">     29.90778239 </i>
    <i name="ewald">  24514.13185852 </i>
    <i name="hartreedc"> -31768.53196450 </i>
    <i name="XCdc">    819.94765379 </i>
    <i name="pawpsdc">  21349.73712798 </i>
    <i name="pawaedc"> -21391.70207532 </i>
    <i name="eentropy">     -0.00000000 </i>
    <i name="bandstr">  -2928.95899914 </i>
    <i name="atom">   8846.35427007 </i>
    <i name="e_fr_energy">   -529.11434620 </i>
    <i name="e_wo_entrp">   -529.11434620 </i>
    <i name="e_0_energy">   -529.11434620 </i>
   </energy>
  </scstep>
  <scstep>
   <time name="dav">  113.86  114.95</time>
   <time name="total">  113.87  114.95</time>
   <energy>
    <i name="e_fr_energy">   -529.71018684 </i>
    <i name="e_wo_entrp">   -529.71018684 </i>
    <i name="e_0_energy">   -529.71018684 </i>
   </energy>
  </scstep>
  <scstep>
   <time name="dav">  123.48  124.73</time>
   <time name="total">  123.49  124.73</time>
   <energy>
    <i name="e_fr_energy">   -529.72365334 </i>
    <i name="e_wo_entrp">   -529.72365334 </i>
    <i name="e_0_energy">   -529.72365334 </i>
   </energy>
  </scstep>
  <scstep>
   <time name="dav">  112.12  113.25</time>
   <time name="total">  112.13  113.25</time>
   <energy>
    <i name="e_fr_energy">   -529.72401058 </i>
    <i name="e_wo_entrp">   -529.72401058 </i>
    <i name="e_0_energy">   -529.72401058 </i>
   </energy>
  </scstep>
  <scstep>
   <time name="dav">  110.20  111.30</time>
   <time name="total">  110.21  111.30</time>
   <energy>
    <i name="e_fr_energy">   -529.72402721 </i>
    <i name="e_wo_entrp">   -529.72402721 </i>
    <i name="e_0_energy">   -529.72402721 </i>
   </energy>
  </scstep>
  <scstep>
   <time name="dav">   87.84   88.67</time>
   <time name="total">   87.85   88.67</time>
   <energy>
    <i name="alphaZ">     29.90778239 </i>
    <i name="ewald">  24514.13185852 </i>
    <i name="hartreedc"> -31768.53196450 </i>
    <i name="XCdc">    819.94765379 </i>
    <i name="pawpsdc">  21349.73712798 </i>
    <i name="pawaedc"> -21391.70207532 </i>
    <i name="eentropy">     -0.00000000 </i>
    <i name="bandstr">  -2929.56868068 </i>
    <i name="atom">   8846.35427007 </i>
    <i name="e_fr_energy">   -529.72402773 </i>
    <i name="e_wo_entrp">   -529.72402773 </i>
    <i name="e_0_energy">   -529.72402773 </i>
   </energy>
  </scstep>
  <structure>
   <crystal>
    <varray name="basis" >
     <v>      21.95413030       0.00077054       0.00000000 </v>
     <v>     -10.97660301      19.08378087       0.00000000 </v>
     <v>       0.00000000       0.00000000      20.00000000 </v>
    </varray>
    <i name="volume">   8379.52539665 </i>
    <varray name="rec_basis" >
     <v>       0.04554860       0.02619863       0.00000000 </v>
     <v>      -0.00000184       0.05239946       0.00000000 </v>
     <v>       0.00000000       0.00000000       0.05000000 </v>
    </varray>
   </crystal>
   <varray name="positions" >
    <v>       0.76400682       0.40472826       0.54652527 </v>
    <v>       0.65561854       0.30819240       0.54626600 </v>
    <v>       0.66706829       0.41634900       0.54657002 </v>
    <v>       0.63807593       0.46400185       0.54687080 </v>
    <v>       0.84073237       0.43376396       0.54684209 </v>
    <v>       0.60807849       0.23172355       0.54636468 </v>
    <v>       0.29551238       0.68957632       0.51280418 </v>
    <v>       0.40844675       0.77799976       0.51355222 </v>
    <v>       0.38431123       0.66531164       0.51255655 </v>
    <v>       0.40561201       0.61138034       0.51408177 </v>
    <v>       0.22012465       0.66805029       0.51463210 </v>
    <v>       0.54632432       0.48789345       0.53990888 </v>
    <v>       0.48184055       0.46911062       0.57242370 </v>
    <v>       0.45412940       0.51467990       0.57018124 </v>
    <v>       0.44468206       0.40119258       0.61053813 </v>
    <v>       0.38925392       0.49683214       0.61056285 </v>
    <v>       0.95604427       0.52585480       0.54044841 </v>
    <v>       0.00109635       0.59029470       0.57295567 </v>
    <v>       0.07451488       0.61855436       0.57060187 </v>
    <v>       0.96950170       0.62686869       0.61105287 </v>
    <v>       0.12085122       0.68357304       0.61076260 </v>
    <v>       0.58483016       0.11661264       0.53981353 </v>
    <v>       0.60432701       0.07154898       0.57232502 </v>
    <v>       0.67274327       0.10289922       0.60998489 </v>
    <v>       0.49034935       0.57789918       0.53277667 </v>
    <v>       0.55470492       0.59589492       0.50132802 </v>
    <v>       0.58186763       0.55133454       0.50389560 </v>
    <v>       0.10227404       0.58284098       0.53320234 </v>
    <v>       0.05651269       0.51852768       0.50176745 </v>
    <v>       0.98467243       0.49087807       0.50437896 </v>
    <v>       0.52098256       0.08826213       0.50413262 </v>
    <v>       0.46228802       0.85311075       0.51533098 </v>
    <v>       0.55902726       0.99840393       0.57047283 </v>
    <v>       0.57785741       0.95213337       0.61073043 </v>
    <v>       0.49528643       0.97091562       0.53354730 </v>
    <v>       0.47662645       0.01666856       0.50204040 </v>
    <v>       0.55190129       0.21568988       0.55021904 </v>
    <v>       0.85693856       0.39381437       0.55052234 </v>
    <v>       0.67819313       0.51993253       0.55095989 </v>
    <v>       0.20885301       0.71076930       0.50517570 </v>
    <v>       0.36259324       0.55774942       0.50414698 </v>
    <v>       0.46533557       0.36687789       0.59605389 </v>
    <v>       0.45253917       0.40997231       0.66489454 </v>
    <v>       0.38772741       0.37400040       0.60161566 </v>
    <v>       0.38361523       0.54284779       0.61989866 </v>
    <v>       0.34084499       0.45747519       0.58550157 </v>
    <v>       0.39101537       0.47465455       0.65923057 </v>
    <v>       0.91438084       0.60570476       0.59666247 </v>
    <v>       0.97067272       0.61924605       0.66542738 </v>
    <v>       0.99849363       0.68365368       0.60200889 </v>
    <v>       0.17291515       0.68990990       0.62005141 </v>
    <v>       0.12898556       0.73152528       0.58549890 </v>
    <v>       0.09682708       0.68172911       0.65943957 </v>
    <v>       0.70675765       0.15762696       0.59500106 </v>
    <v>       0.66434894       0.10247572       0.66437445 </v>
    <v>       0.70023738       0.07342750       0.60117759 </v>
    <v>       0.63018094       0.56432219       0.47720987 </v>
    <v>       0.58141067       0.64530723       0.47404245 </v>
    <v>       0.94977379       0.44261965       0.47768850 </v>
    <v>       0.07978141       0.49226882       0.47442105 </v>
    <v>       0.50748934       0.12311558       0.47738855 </v>
    <v>       0.51616952       0.86397087       0.50540307 </v>
    <v>       0.53215702       0.90039712       0.62033499 </v>
    <v>       0.61753582       0.94361606       0.58539545 </v>
    <v>       0.60026467       0.97632238       0.65925790 </v>
    <v>       0.42686574       0.99358259       0.47508378 </v>
    <v>       0.72577331       0.33435846       0.54638931 </v>
    <v>       0.62326776       0.34641846       0.54647734 </v>
    <v>       0.73762964       0.44845601       0.54672590 </v>
    <v>       0.33980452       0.75906381       0.51331614 </v>
    <v>       0.43385543       0.73373089       0.51304004 </v>
    <v>       0.31463139       0.64012630       0.51171869 </v>
    <v>       0.57179194       0.44132448       0.54346226 </v>
    <v>       0.88390291       0.49994836       0.54394231 </v>
    <v>       0.63117427       0.18849569       0.54320893 </v>
    <v>       0.46916072       0.62767246       0.52662737 </v>
    <v>       0.17344001       0.60444194       0.52687603 </v>
    <v>       0.44560854       0.90002686       0.52775486 </v>
   </varray>
  </structure>
  <varray name="forces" >
   <v>       0.00430521       0.00507265       0.00023110 </v>
   <v>       0.00299307       0.00317186       0.00238655 </v>
   <v>       0.00037870      -0.00580025       0.00147067 </v>
   <v>       0.00605621       0.00032858      -0.00273872 </v>
   <v>      -0.00530438      -0.00580142      -0.00099778 </v>
   <v>      -0.00072855       0.00457069       0.00077585 </v>
   <v>      -0.00383440      -0.00523635      -0.00074082 </v>
   <v>       0.00045972      -0.00016727       0.00145716 </v>
   <v>       0.00039364       0.00412606      -0.00210272 </v>
   <v>      -0.00626820      -0.00028261       0.00024855 </v>
   <v>       0.00719543       0.00610067      -0.00034842 </v>
   <v>       0.00238102      -0.00365835       0.00115092 </v>
   <v>      -0.00191304      -0.00049417       0.00113308 </v>
   <v>       0.00176284      -0.00329623       0.00020850 </v>
   <v>      -0.00032648       0.00201041       0.00227790 </v>
   <v>       0.00328520       0.00200555       0.00028081 </v>
   <v>      -0.00678440      -0.00218989      -0.00252345 </v>
   <v>       0.00019587       0.00648157       0.00016056 </v>
   <v>      -0.00261281       0.00229006       0.00079882 </v>
   <v>       0.00135501      -0.00254059      -0.00014507 </v>
   <v>       0.00041839      -0.00258191       0.00079554 </v>
   <v>       0.00010587       0.00394843       0.00068058 </v>
   <v>       0.00192670      -0.00351714       0.00171768 </v>
   <v>      -0.00412462       0.00039099       0.00138463 </v>
   <v>      -0.00536214       0.00417646       0.00158759 </v>
   <v>       0.00243361       0.00269139      -0.00146724 </v>
   <v>      -0.00178525       0.00372794      -0.00107612 </v>
   <v>       0.00744118       0.00222018       0.00070417 </v>
   <v>      -0.00058783      -0.00580826      -0.00229387 </v>
   <v>       0.00408447      -0.00097289      -0.00381413 </v>
   <v>      -0.00241534      -0.00228418      -0.00002247 </v>
   <v>       0.00182363      -0.00261198      -0.00006664 </v>
   <v>       0.00183445       0.00116892       0.00271989 </v>
   <v>      -0.00438901       0.00151193       0.00126999 </v>
   <v>      -0.00123626      -0.00377492       0.00160453 </v>
   <v>      -0.00371733       0.00305945      -0.00162403 </v>
   <v>      -0.00130735       0.00104694       0.00139084 </v>
   <v>      -0.00076298       0.00300385       0.00023502 </v>
   <v>       0.00165650       0.00323232      -0.00128771 </v>
   <v>       0.00120316       0.00011498      -0.00032200 </v>
   <v>       0.00008075      -0.00175845      -0.00241458 </v>
   <v>       0.00016193       0.00054796       0.00065780 </v>
   <v>      -0.00011491       0.00088260      -0.00107033 </v>
   <v>       0.00018838       0.00196889       0.00117570 </v>
   <v>      -0.00018497       0.00240171      -0.00108508 </v>
   <v>      -0.00126569      -0.00126248       0.00013375 </v>
   <v>       0.00088565       0.00203615       0.00179079 </v>
   <v>       0.00055035      -0.00075086      -0.00075665 </v>
   <v>       0.00261742      -0.00300837      -0.00314869 </v>
   <v>       0.00114391      -0.00109492       0.00023259 </v>
   <v>       0.00128251      -0.00184901       0.00069579 </v>
   <v>       0.00051566      -0.00054045       0.00246714 </v>
   <v>       0.00187786      -0.00299849       0.00034200 </v>
   <v>      -0.00076612      -0.00049866       0.00117298 </v>
   <v>      -0.00345217      -0.00067458       0.00054781 </v>
   <v>       0.00009036      -0.00135509       0.00252271 </v>
   <v>       0.00284125       0.00049456      -0.00141212 </v>
   <v>      -0.00005265      -0.00091022      -0.00107286 </v>
   <v>       0.00131075      -0.00140578      -0.00279316 </v>
   <v>       0.00140831      -0.00056131       0.00001569 </v>
   <v>      -0.00350996       0.00216384      -0.00020795 </v>
   <v>      -0.00261652       0.00178743      -0.00087298 </v>
   <v>      -0.00389716      -0.00191917       0.00071961 </v>
   <v>       0.00016839      -0.00151920       0.00136516 </v>
   <v>      -0.00311601      -0.00170978       0.00175942 </v>
   <v>      -0.00190086       0.00006877      -0.00271514 </v>
   <v>      -0.00290006      -0.00395889      -0.00141892 </v>
   <v>       0.00368334       0.00561481      -0.00250934 </v>
   <v>      -0.00066186      -0.00231108      -0.00254710 </v>
   <v>       0.00396659       0.00351010       0.00012248 </v>
   <v>      -0.00373170      -0.00408957       0.00320789 </v>
   <v>       0.00198287      -0.00061297       0.00311480 </v>
   <v>      -0.00573153       0.00081941       0.00154976 </v>
   <v>       0.00252227       0.00635156       0.00119344 </v>
   <v>       0.00188960      -0.00154874       0.00313160 </v>
   <v>       0.00927330      -0.00073032      -0.00333311 </v>
   <v>      -0.00390467      -0.00697726      -0.00446856 </v>
   <v>      -0.00086414      -0.00003562      -0.00119209 </v>
  </varray>
  <varray name="stress" >
   <v>       0.00089338       0.00604864       0.00340453 </v>
   <v>       0.00604863       0.00129276      -0.00307909 </v>
   <v>       0.00340454      -0.00307910      -0.18364956 </v>
  </varray>
  <energy>
   <i name="e_fr_energy">   -531.13403228 </i>
   <i name="e_wo_entrp">   -531.13403228 </i>
   <i name="e_0_energy">     -0.00000000 </i>
  </energy>
  <time name="totalsc">  733.41  741.02</time>
  <eigenvalues>
   <array>
    <dimension dim="1">band</dimension>
    <dimension dim="2">kpoint</dimension>
    <dimension dim="3">spin</dimension>
    <field>eigene</field>
    <field>occ</field>
    <set>
     <set comment="spin 1">
      <set comment="kpoint 1">
       <r>  -25.5149    1.0000 </r>
       <r>  -25.3529    1.0000 </r>
       <r>  -23.5162    1.0000 </r>
       <r>  -23.5159    1.0000 </r>
       <r>  -23.3886    1.0000 </r>
       <r>  -23.3874    1.0000 </r>
       <r>  -23.3394    1.0000 </r>
       <r>  -23.1899    1.0000 </r>
       <r>  -22.3177    1.0000 </r>
       <r>  -22.3156    1.0000 </r>
       <r>  -22.1708    1.0000 </r>
       <r>  -22.1702    1.0000 </r>
       <r>  -20.8259    1.0000 </r>
       <r>  -20.8123    1.0000 </r>
       <r>  -20.8105    1.0000 </r>
       <r>  -19.1730    1.0000 </r>
       <r>  -19.1705    1.0000 </r>
       <r>  -19.1578    1.0000 </r>
       <r>  -18.8423    1.0000 </r>
       <r>  -18.8390    1.0000 </r>
       <r>  -18.6419    1.0000 </r>
       <r>  -17.9152    1.0000 </r>
       <r>  -17.9113    1.0000 </r>
       <r>  -17.5375    1.0000 </r>
       <r>  -17.5351    1.0000 </r>
       <r>  -17.3585    1.0000 </r>
       <r>  -16.8885    1.0000 </r>
       <r>  -16.6570    1.0000 </r>
       <r>  -16.6559    1.0000 </r>
       <r>  -16.3467    1.0000 </r>
       <r>  -16.3446    1.0000 </r>
       <r>  -16.2185    1.0000 </r>
       <r>  -15.5257    1.0000 </r>
       <r>  -15.1792    1.0000 </r>
       <r>  -15.1771    1.0000 </r>
       <r>  -14.4244    1.0000 </r>
       <r>  -14.1793    1.0000 </r>
       <r>  -14.1781    1.0000 </r>
       <r>  -14.1393    1.0000 </r>
       <r>  -13.7128    1.0000 </r>
       <r>  -13.6966    1.0000 </r>
       <r>  -13.6926    1.0000 </r>
       <r>  -13.2189    1.0000 </r>
       <r>  -13.0568    1.0000 </r>
       <r>  -13.0538    1.0000 </r>
       <r>  -12.4844    1.0000 </r>
       <r>  -12.3161    1.0000 </r>
       <r>  -12.3143    1.0000 </r>
       <r>  -12.1562    1.0000 </r>
       <r>  -12.0768    1.0000 </r>
       <r>  -12.0764    1.0000 </r>
       <r>  -11.7658    1.0000 </r>
       <r>  -11.7639    1.0000 </r>
       <r>  -11.6438    1.0000 </r>
       <r>  -11.4716    1.0000 </r>
       <r>  -11.3497    1.0000 </r>
       <r>  -11.1822    1.0000 </r>
       <r>  -11.0156    1.0000 </r>
       <r>  -10.6762    1.0000 </r>
       <r>  -10.6732    1.0000 </r>
       <r>  -10.4236    1.0000 </r>
       <r>  -10.4217    1.0000 </r>
       <r>  -10.3465    1.0000 </r>
       <r>  -10.1496    1.0000 </r>
       <r>  -10.1475    1.0000 </r>
       <r>  -10.0202    1.0000 </r>
       <r>   -9.9492    1.0000 </r>
       <r>   -9.9474    1.0000 </r>
       <r>   -9.7891    1.0000 </r>
       <r>   -9.7885    1.0000 </r>
       <r>   -9.7775    1.0000 </r>
       <r>   -9.6110    1.0000 </r>
       <r>   -9.6091    1.0000 </r>
       <r>   -9.4854    1.0000 </r>
       <r>   -9.4395    1.0000 </r>
       <r>   -9.4376    1.0000 </r>
       <r>   -9.4239    1.0000 </r>
       <r>   -9.2839    1.0000 </r>
       <r>   -9.2838    1.0000 </r>
       <r>   -9.1520    1.0000 </r>
       <r>   -9.0510    1.0000 </r>
       <r>   -9.0468    1.0000 </r>
       <r>   -8.9470    1.0000 </r>
       <r>   -8.7799    1.0000 </r>
       <r>   -8.7396    1.0000 </r>
       <r>   -8.7378    1.0000 </r>
       <r>   -8.6814    1.0000 </r>
       <r>   -8.6453    1.0000 </r>
       <r>   -8.6430    1.0000 </r>
       <r>   -8.5701    1.0000 </r>
       <r>   -8.4833    1.0000 </r>
       <r>   -8.4808    1.0000 </r>
       <r>   -8.3774    1.0000 </r>
       <r>   -8.0190    1.0000 </r>
       <r>   -8.0176    1.0000 </r>
       <r>   -7.8433    1.0000 </r>
       <r>   -7.6577    1.0000 </r>
       <r>   -7.6540    1.0000 </r>
       <r>   -7.4688    1.0000 </r>
       <r>   -7.0920    1.0000 </r>
       <r>   -7.0903    1.0000 </r>
       <r>   -6.5090    1.0000 </r>
       <r>   -6.3891    1.0000 </r>
       <r>   -6.3845    1.0000 </r>
       <r>   -6.0815    1.0000 </r>
       <r>   -6.0800    1.0000 </r>
       <r>   -6.0747    1.0000 </r>
       <r>   -5.9899    1.0000 </r>
       <r>   -5.9890    1.0000 </r>
       <r>   -5.8549    1.0000 </r>
       <r>   -5.8517    1.0000 </r>
       <r>   -5.7443    1.0000 </r>
       <r>   -5.7230    1.0000 </r>
       <r>   -5.7214    1.0000 </r>
       <r>   -4.9593    1.0000 </r>
       <r>   -4.9560    1.0000 </r>
       <r>   -4.9397    1.0000 </r>
       <r>   -3.3645    0.0000 </r>
       <r>   -3.3610    0.0000 </r>
       <r>   -2.9061    0.0000 </r>
       <r>   -2.9053    0.0000 </r>
       <r>   -2.4409    0.0000 </r>
       <r>   -1.7507    0.0000 </r>
       <r>   -0.9561    0.0000 </r>
       <r>   -0.9535    0.0000 </r>
       <r>   -0.9414    0.0000 </r>
       <r>   -0.7007    0.0000 </r>
       <r>   -0.6966    0.0000 </r>
       <r>   -0.2710    0.0000 </r>
       <r>   -0.1094    0.0000 </r>
       <r>   -0.1062    0.0000 </r>
       <r>   -0.0541    0.0000 </r>
       <r>    0.0440    0.0000 </r>
       <r>    0.0482    0.0000 </r>
       <r>    0.1605    0.0000 </r>
       <r>    0.2090    0.0000 </r>
       <r>    0.2111    0.0000 </r>
       <r>    0.2508    0.0000 </r>
       <r>    0.4151    0.0000 </r>
       <r>    0.4163    0.0000 </r>
       <r>    0.4945    0.0000 </r>
       <r>    0.6149    0.0000 </r>
       <r>    0.6356    0.0000 </r>
       <r>    0.7147    0.0000 </r>
       <r>    0.7157    0.0000 </r>
       <r>    0.7644    0.0000 </r>
       <r>    0.7899    0.0000 </r>
       <r>    0.7911    0.0000 </r>
       <r>    0.8684    0.0000 </r>
       <r>    0.8717    0.0000 </r>
       <r>    0.9062    0.0000 </r>
       <r>    0.9926    0.0000 </r>
       <r>    0.9996    0.0000 </r>
       <r>    1.0028    0.0000 </r>
       <r>    1.0359    0.0000 </r>
       <r>    1.0381    0.0000 </r>
       <r>    1.0686    0.0000 </r>
       <r>    1.1114    0.0000 </r>
       <r>    1.1142    0.0000 </r>
       <r>    1.1290    0.0000 </r>
      </set>
      <set comment="kpoint 2">
       <r>  -25.5149    1.0000 </r>
       <r>  -25.3529    1.0000 </r>
       <r>  -23.5162    1.0000 </r>
       <r>  -23.5158    1.0000 </r>
       <r>  -23.3890    1.0000 </r>
       <r>  -23.3874    1.0000 </r>
       <r>  -23.3388    1.0000 </r>
       <r>  -23.1900    1.0000 </r>
       <r>  -22.3177    1.0000 </r>
       <r>  -22.3155    1.0000 </r>
       <r>  -22.1708    1.0000 </r>
       <r>  -22.1702    1.0000 </r>
       <r>  -20.8259    1.0000 </r>
       <r>  -20.8123    1.0000 </r>
       <r>  -20.8105    1.0000 </r>
       <r>  -19.1730    1.0000 </r>
       <r>  -19.1705    1.0000 </r>
       <r>  -19.1578    1.0000 </r>
       <r>  -18.8421    1.0000 </r>
       <r>  -18.8390    1.0000 </r>
       <r>  -18.6424    1.0000 </r>
       <r>  -17.9146    1.0000 </r>
       <r>  -17.9112    1.0000 </r>
       <r>  -17.5377    1.0000 </r>
       <r>  -17.5351    1.0000 </r>
       <r>  -17.3585    1.0000 </r>
       <r>  -16.8905    1.0000 </r>
       <r>  -16.6561    1.0000 </r>
       <r>  -16.6546    1.0000 </r>
       <r>  -16.3467    1.0000 </r>
       <r>  -16.3446    1.0000 </r>
       <r>  -16.2181    1.0000 </r>
       <r>  -15.5284    1.0000 </r>
       <r>  -15.1772    1.0000 </r>
       <r>  -15.1766    1.0000 </r>
       <r>  -14.4254    1.0000 </r>
       <r>  -14.1792    1.0000 </r>
       <r>  -14.1781    1.0000 </r>
       <r>  -14.1390    1.0000 </r>
       <r>  -13.7133    1.0000 </r>
       <r>  -13.6957    1.0000 </r>
       <r>  -13.6925    1.0000 </r>
       <r>  -13.2192    1.0000 </r>
       <r>  -13.0570    1.0000 </r>
       <r>  -13.0539    1.0000 </r>
       <r>  -12.4843    1.0000 </r>
       <r>  -12.3159    1.0000 </r>
       <r>  -12.3143    1.0000 </r>
       <r>  -12.1570    1.0000 </r>
       <r>  -12.0764    1.0000 </r>
       <r>  -12.0757    1.0000 </r>
       <r>  -11.7662    1.0000 </r>
       <r>  -11.7639    1.0000 </r>
       <r>  -11.6435    1.0000 </r>
       <r>  -11.4719    1.0000 </r>
       <r>  -11.3497    1.0000 </r>
       <r>  -11.1820    1.0000 </r>
       <r>  -11.0159    1.0000 </r>
       <r>  -10.6762    1.0000 </r>
       <r>  -10.6733    1.0000 </r>
       <r>  -10.4240    1.0000 </r>
       <r>  -10.4221    1.0000 </r>
       <r>  -10.3454    1.0000 </r>
       <r>  -10.1497    1.0000 </r>
       <r>  -10.1476    1.0000 </r>
       <r>  -10.0201    1.0000 </r>
       <r>   -9.9493    1.0000 </r>
       <r>   -9.9475    1.0000 </r>
       <r>   -9.7898    1.0000 </r>
       <r>   -9.7885    1.0000 </r>
       <r>   -9.7769    1.0000 </r>
       <r>   -9.6109    1.0000 </r>
       <r>   -9.6089    1.0000 </r>
       <r>   -9.4854    1.0000 </r>
       <r>   -9.4395    1.0000 </r>
       <r>   -9.4376    1.0000 </r>
       <r>   -9.4239    1.0000 </r>
       <r>   -9.2841    1.0000 </r>
       <r>   -9.2839    1.0000 </r>
       <r>   -9.1521    1.0000 </r>
       <r>   -9.0510    1.0000 </r>
       <r>   -9.0468    1.0000 </r>
       <r>   -8.9464    1.0000 </r>
       <r>   -8.7800    1.0000 </r>
       <r>   -8.7396    1.0000 </r>
       <r>   -8.7378    1.0000 </r>
       <r>   -8.6816    1.0000 </r>
       <r>   -8.6455    1.0000 </r>
       <r>   -8.6430    1.0000 </r>
       <r>   -8.5699    1.0000 </r>
       <r>   -8.4836    1.0000 </r>
       <r>   -8.4809    1.0000 </r>
       <r>   -8.3765    1.0000 </r>
       <r>   -8.0194    1.0000 </r>
       <r>   -8.0177    1.0000 </r>
       <r>   -7.8432    1.0000 </r>
       <r>   -7.6586    1.0000 </r>
       <r>   -7.6541    1.0000 </r>
       <r>   -7.4676    1.0000 </r>
       <r>   -7.0924    1.0000 </r>
       <r>   -7.0903    1.0000 </r>
       <r>   -6.5088    1.0000 </r>
       <r>   -6.3892    1.0000 </r>
       <r>   -6.3845    1.0000 </r>
       <r>   -6.0817    1.0000 </r>
       <r>   -6.0800    1.0000 </r>
       <r>   -6.0745    1.0000 </r>
       <r>   -5.9899    1.0000 </r>
       <r>   -5.9889    1.0000 </r>
       <r>   -5.8549    1.0000 </r>
       <r>   -5.8517    1.0000 </r>
       <r>   -5.7443    1.0000 </r>
       <r>   -5.7231    1.0000 </r>
       <r>   -5.7214    1.0000 </r>
       <r>   -4.9593    1.0000 </r>
       <r>   -4.9560    1.0000 </r>
       <r>   -4.9397    1.0000 </r>
       <r>   -3.3640    0.0000 </r>
       <r>   -3.3610    0.0000 </r>
       <r>   -2.9074    0.0000 </r>
       <r>   -2.9054    0.0000 </r>
       <r>   -2.4392    0.0000 </r>
       <r>   -1.7517    0.0000 </r>
       <r>   -0.9561    0.0000 </r>
       <r>   -0.9535    0.0000 </r>
       <r>   -0.9414    0.0000 </r>
       <r>   -0.6999    0.0000 </r>
       <r>   -0.6965    0.0000 </r>
       <r>   -0.2708    0.0000 </r>
       <r>   -0.1117    0.0000 </r>
       <r>   -0.1064    0.0000 </r>
       <r>   -0.0534    0.0000 </r>
       <r>    0.0446    0.0000 </r>
       <r>    0.0482    0.0000 </r>
       <r>    0.1598    0.0000 </r>
       <r>    0.2096    0.0000 </r>
       <r>    0.2106    0.0000 </r>
       <r>    0.2526    0.0000 </r>
       <r>    0.4147    0.0000 </r>
       <r>    0.4162    0.0000 </r>
       <r>    0.4948    0.0000 </r>
       <r>    0.6151    0.0000 </r>
       <r>    0.6340    0.0000 </r>
       <r>    0.7145    0.0000 </r>
       <r>    0.7164    0.0000 </r>
       <r>    0.7627    0.0000 </r>
       <r>    0.7910    0.0000 </r>
       <r>    0.7919    0.0000 </r>
       <r>    0.8682    0.0000 </r>
       <r>    0.8714    0.0000 </r>
       <r>    0.9055    0.0000 </r>
       <r>    0.9876    0.0000 </r>
       <r>    0.9985    0.0000 </r>
       <r>    1.0056    0.0000 </r>
       <r>    1.0359    0.0000 </r>
       <r>    1.0374    0.0000 </r>
       <r>    1.0729    0.0000 </r>
       <r>    1.1114    0.0000 </r>
       <r>    1.1162    0.0000 </r>
       <r>    1.1312    0.0000 </r>
      </set>
      <set comment="kpoint 3">
       <r>  -25.5149    1.0000 </r>
       <r>  -25.3529    1.0000 </r>
       <r>  -23.5161    1.0000 </r>
       <r>  -23.5157    1.0000 </r>
       <r>  -23.3903    1.0000 </r>
       <r>  -23.3875    1.0000 </r>
       <r>  -23.3372    1.0000 </r>
       <r>  -23.1904    1.0000 </r>
       <r>  -22.3177    1.0000 </r>
       <r>  -22.3154    1.0000 </r>
       <r>  -22.1709    1.0000 </r>
       <r>  -22.1702    1.0000 </r>
       <r>  -20.8259    1.0000 </r>
       <r>  -20.8124    1.0000 </r>
       <r>  -20.8105    1.0000 </r>
       <r>  -19.1730    1.0000 </r>
       <r>  -19.1704    1.0000 </r>
       <r>  -19.1578    1.0000 </r>
       <r>  -18.8414    1.0000 </r>
       <r>  -18.8390    1.0000 </r>
       <r>  -18.6436    1.0000 </r>
       <r>  -17.9131    1.0000 </r>
       <r>  -17.9110    1.0000 </r>
       <r>  -17.5384    1.0000 </r>
       <r>  -17.5351    1.0000 </r>
       <r>  -17.3584    1.0000 </r>
       <r>  -16.8963    1.0000 </r>
       <r>  -16.6560    1.0000 </r>
       <r>  -16.6483    1.0000 </r>
       <r>  -16.3468    1.0000 </r>
       <r>  -16.3446    1.0000 </r>
       <r>  -16.2169    1.0000 </r>
       <r>  -15.5361    1.0000 </r>
       <r>  -15.1772    1.0000 </r>
       <r>  -15.1693    1.0000 </r>
       <r>  -14.4286    1.0000 </r>
       <r>  -14.1790    1.0000 </r>
       <r>  -14.1782    1.0000 </r>
       <r>  -14.1382    1.0000 </r>
       <r>  -13.7143    1.0000 </r>
       <r>  -13.6934    1.0000 </r>
       <r>  -13.6922    1.0000 </r>
       <r>  -13.2201    1.0000 </r>
       <r>  -13.0577    1.0000 </r>
       <r>  -13.0542    1.0000 </r>
       <r>  -12.4841    1.0000 </r>
       <r>  -12.3156    1.0000 </r>
       <r>  -12.3140    1.0000 </r>
       <r>  -12.1591    1.0000 </r>
       <r>  -12.0765    1.0000 </r>
       <r>  -12.0726    1.0000 </r>
       <r>  -11.7675    1.0000 </r>
       <r>  -11.7634    1.0000 </r>
       <r>  -11.6428    1.0000 </r>
       <r>  -11.4729    1.0000 </r>
       <r>  -11.3499    1.0000 </r>
       <r>  -11.1814    1.0000 </r>
       <r>  -11.0167    1.0000 </r>
       <r>  -10.6762    1.0000 </r>
       <r>  -10.6733    1.0000 </r>
       <r>  -10.4262    1.0000 </r>
       <r>  -10.4218    1.0000 </r>
       <r>  -10.3422    1.0000 </r>
       <r>  -10.1499    1.0000 </r>
       <r>  -10.1478    1.0000 </r>
       <r>  -10.0200    1.0000 </r>
       <r>   -9.9496    1.0000 </r>
       <r>   -9.9477    1.0000 </r>
       <r>   -9.7914    1.0000 </r>
       <r>   -9.7884    1.0000 </r>
       <r>   -9.7755    1.0000 </r>
       <r>   -9.6107    1.0000 </r>
       <r>   -9.6084    1.0000 </r>
       <r>   -9.4856    1.0000 </r>
       <r>   -9.4395    1.0000 </r>
       <r>   -9.4376    1.0000 </r>
       <r>   -9.4240    1.0000 </r>
       <r>   -9.2850    1.0000 </r>
       <r>   -9.2839    1.0000 </r>
       <r>   -9.1527    1.0000 </r>
       <r>   -9.0508    1.0000 </r>
       <r>   -9.0469    1.0000 </r>
       <r>   -8.9448    1.0000 </r>
       <r>   -8.7803    1.0000 </r>
       <r>   -8.7396    1.0000 </r>
       <r>   -8.7377    1.0000 </r>
       <r>   -8.6824    1.0000 </r>
       <r>   -8.6462    1.0000 </r>
       <r>   -8.6430    1.0000 </r>
       <r>   -8.5694    1.0000 </r>
       <r>   -8.4847    1.0000 </r>
       <r>   -8.4810    1.0000 </r>
       <r>   -8.3737    1.0000 </r>
       <r>   -8.0206    1.0000 </r>
       <r>   -8.0177    1.0000 </r>
       <r>   -7.8429    1.0000 </r>
       <r>   -7.6612    1.0000 </r>
       <r>   -7.6541    1.0000 </r>
       <r>   -7.4640    1.0000 </r>
       <r>   -7.0937    1.0000 </r>
       <r>   -7.0903    1.0000 </r>
       <r>   -6.5081    1.0000 </r>
       <r>   -6.3895    1.0000 </r>
       <r>   -6.3847    1.0000 </r>
       <r>   -6.0822    1.0000 </r>
       <r>   -6.0800    1.0000 </r>
       <r>   -6.0740    1.0000 </r>
       <r>   -5.9899    1.0000 </r>
       <r>   -5.9887    1.0000 </r>
       <r>   -5.8549    1.0000 </r>
       <r>   -5.8518    1.0000 </r>
       <r>   -5.7442    1.0000 </r>
       <r>   -5.7232    1.0000 </r>
       <r>   -5.7215    1.0000 </r>
       <r>   -4.9593    1.0000 </r>
       <r>   -4.9560    1.0000 </r>
       <r>   -4.9398    1.0000 </r>
       <r>   -3.3627    0.0000 </r>
       <r>   -3.3610    0.0000 </r>
       <r>   -2.9115    0.0000 </r>
       <r>   -2.9054    0.0000 </r>
       <r>   -2.4342    0.0000 </r>
       <r>   -1.7548    0.0000 </r>
       <r>   -0.9560    0.0000 </r>
       <r>   -0.9535    0.0000 </r>
       <r>   -0.9415    0.0000 </r>
       <r>   -0.6981    0.0000 </r>
       <r>   -0.6954    0.0000 </r>
       <r>   -0.2702    0.0000 </r>
       <r>   -0.1180    0.0000 </r>
       <r>   -0.1068    0.0000 </r>
       <r>   -0.0518    0.0000 </r>
       <r>    0.0464    0.0000 </r>
       <r>    0.0483    0.0000 </r>
       <r>    0.1578    0.0000 </r>
       <r>    0.2087    0.0000 </r>
       <r>    0.2122    0.0000 </r>
       <r>    0.2577    0.0000 </r>
       <r>    0.4135    0.0000 </r>
       <r>    0.4158    0.0000 </r>
       <r>    0.4956    0.0000 </r>
       <r>    0.6158    0.0000 </r>
       <r>    0.6297    0.0000 </r>
       <r>    0.7136    0.0000 </r>
       <r>    0.7179    0.0000 </r>
       <r>    0.7594    0.0000 </r>
       <r>    0.7910    0.0000 </r>
       <r>    0.7960    0.0000 </r>
       <r>    0.8672    0.0000 </r>
       <r>    0.8708    0.0000 </r>
       <r>    0.9038    0.0000 </r>
       <r>    0.9782    0.0000 </r>
       <r>    0.9952    0.0000 </r>
       <r>    1.0085    0.0000 </r>
       <r>    1.0332    0.0000 </r>
       <r>    1.0412    0.0000 </r>
       <r>    1.0823    0.0000 </r>
       <r>    1.1118    0.0000 </r>
       <r>    1.1221    0.0000 </r>
       <r>    1.1371    0.0000 </r>
      </set>
      <set comment="kpoint 4">
       <r>  -25.5149    1.0000 </r>
       <r>  -25.3529    1.0000 </r>
       <r>  -23.5161    1.0000 </r>
       <r>  -23.5155    1.0000 </r>
       <r>  -23.3924    1.0000 </r>
       <r>  -23.3876    1.0000 </r>
       <r>  -23.3348    1.0000 </r>
       <r>  -23.1910    1.0000 </r>
       <r>  -22.3177    1.0000 </r>
       <r>  -22.3153    1.0000 </r>
       <r>  -22.1711    1.0000 </r>
       <r>  -22.1702    1.0000 </r>
       <r>  -20.8258    1.0000 </r>
       <r>  -20.8125    1.0000 </r>
       <r>  -20.8105    1.0000 </r>
       <r>  -19.1730    1.0000 </r>
       <r>  -19.1704    1.0000 </r>
       <r>  -19.1578    1.0000 </r>
       <r>  -18.8403    1.0000 </r>
       <r>  -18.8390    1.0000 </r>
       <r>  -18.6457    1.0000 </r>
       <r>  -17.9119    1.0000 </r>
       <r>  -17.9093    1.0000 </r>
       <r>  -17.5396    1.0000 </r>
       <r>  -17.5352    1.0000 </r>
       <r>  -17.3583    1.0000 </r>
       <r>  -16.9053    1.0000 </r>
       <r>  -16.6560    1.0000 </r>
       <r>  -16.6384    1.0000 </r>
       <r>  -16.3469    1.0000 </r>
       <r>  -16.3446    1.0000 </r>
       <r>  -16.2149    1.0000 </r>
       <r>  -15.5483    1.0000 </r>
       <r>  -15.1772    1.0000 </r>
       <r>  -15.1579    1.0000 </r>
       <r>  -14.4339    1.0000 </r>
       <r>  -14.1789    1.0000 </r>
       <r>  -14.1781    1.0000 </r>
       <r>  -14.1368    1.0000 </r>
       <r>  -13.7156    1.0000 </r>
       <r>  -13.6921    1.0000 </r>
       <r>  -13.6896    1.0000 </r>
       <r>  -13.2215    1.0000 </r>
       <r>  -13.0588    1.0000 </r>
       <r>  -13.0545    1.0000 </r>
       <r>  -12.4837    1.0000 </r>
       <r>  -12.3158    1.0000 </r>
       <r>  -12.3130    1.0000 </r>
       <r>  -12.1621    1.0000 </r>
       <r>  -12.0766    1.0000 </r>
       <r>  -12.0678    1.0000 </r>
       <r>  -11.7699    1.0000 </r>
       <r>  -11.7624    1.0000 </r>
       <r>  -11.6417    1.0000 </r>
       <r>  -11.4745    1.0000 </r>
       <r>  -11.3501    1.0000 </r>
       <r>  -11.1804    1.0000 </r>
       <r>  -11.0180    1.0000 </r>
       <r>  -10.6762    1.0000 </r>
       <r>  -10.6732    1.0000 </r>
       <r>  -10.4302    1.0000 </r>
       <r>  -10.4207    1.0000 </r>
       <r>  -10.3373    1.0000 </r>
       <r>  -10.1504    1.0000 </r>
       <r>  -10.1481    1.0000 </r>
       <r>  -10.0197    1.0000 </r>
       <r>   -9.9500    1.0000 </r>
       <r>   -9.9481    1.0000 </r>
       <r>   -9.7935    1.0000 </r>
       <r>   -9.7883    1.0000 </r>
       <r>   -9.7736    1.0000 </r>
       <r>   -9.6106    1.0000 </r>
       <r>   -9.6074    1.0000 </r>
       <r>   -9.4860    1.0000 </r>
       <r>   -9.4396    1.0000 </r>
       <r>   -9.4376    1.0000 </r>
       <r>   -9.4240    1.0000 </r>
       <r>   -9.2863    1.0000 </r>
       <r>   -9.2839    1.0000 </r>
       <r>   -9.1536    1.0000 </r>
       <r>   -9.0504    1.0000 </r>
       <r>   -9.0471    1.0000 </r>
       <r>   -8.9421    1.0000 </r>
       <r>   -8.7807    1.0000 </r>
       <r>   -8.7397    1.0000 </r>
       <r>   -8.7375    1.0000 </r>
       <r>   -8.6837    1.0000 </r>
       <r>   -8.6474    1.0000 </r>
       <r>   -8.6431    1.0000 </r>
       <r>   -8.5686    1.0000 </r>
       <r>   -8.4864    1.0000 </r>
       <r>   -8.4811    1.0000 </r>
       <r>   -8.3691    1.0000 </r>
       <r>   -8.0228    1.0000 </r>
       <r>   -8.0178    1.0000 </r>
       <r>   -7.8424    1.0000 </r>
       <r>   -7.6653    1.0000 </r>
       <r>   -7.6542    1.0000 </r>
       <r>   -7.4583    1.0000 </r>
       <r>   -7.0958    1.0000 </r>
       <r>   -7.0903    1.0000 </r>
       <r>   -6.5070    1.0000 </r>
       <r>   -6.3901    1.0000 </r>
       <r>   -6.3849    1.0000 </r>
       <r>   -6.0830    1.0000 </r>
       <r>   -6.0800    1.0000 </r>
       <r>   -6.0733    1.0000 </r>
       <r>   -5.9899    1.0000 </r>
       <r>   -5.9883    1.0000 </r>
       <r>   -5.8549    1.0000 </r>
       <r>   -5.8519    1.0000 </r>
       <r>   -5.7441    1.0000 </r>
       <r>   -5.7233    1.0000 </r>
       <r>   -5.7215    1.0000 </r>
       <r>   -4.9593    1.0000 </r>
       <r>   -4.9560    1.0000 </r>
       <r>   -4.9399    1.0000 </r>
       <r>   -3.3611    0.0000 </r>
       <r>   -3.3603    0.0000 </r>
       <r>   -2.9183    0.0000 </r>
       <r>   -2.9054    0.0000 </r>
       <r>   -2.4262    0.0000 </r>
       <r>   -1.7600    0.0000 </r>
       <r>   -0.9559    0.0000 </r>
       <r>   -0.9535    0.0000 </r>
       <r>   -0.9417    0.0000 </r>
       <r>   -0.6974    0.0000 </r>
       <r>   -0.6915    0.0000 </r>
       <r>   -0.2692    0.0000 </r>
       <r>   -0.1273    0.0000 </r>
       <r>   -0.1075    0.0000 </r>
       <r>   -0.0505    0.0000 </r>
       <r>    0.0480    0.0000 </r>
       <r>    0.0495    0.0000 </r>
       <r>    0.1554    0.0000 </r>
       <r>    0.2067    0.0000 </r>
       <r>    0.2155    0.0000 </r>
       <r>    0.2653    0.0000 </r>
       <r>    0.4117    0.0000 </r>
       <r>    0.4152    0.0000 </r>
       <r>    0.4969    0.0000 </r>
       <r>    0.6168    0.0000 </r>
       <r>    0.6235    0.0000 </r>
       <r>    0.7118    0.0000 </r>
       <r>    0.7187    0.0000 </r>
       <r>    0.7573    0.0000 </r>
       <r>    0.7910    0.0000 </r>
       <r>    0.8012    0.0000 </r>
       <r>    0.8640    0.0000 </r>
       <r>    0.8703    0.0000 </r>
       <r>    0.9020    0.0000 </r>
       <r>    0.9676    0.0000 </r>
       <r>    0.9906    0.0000 </r>
       <r>    1.0089    0.0000 </r>
       <r>    1.0331    0.0000 </r>
       <r>    1.0465    0.0000 </r>
       <r>    1.0926    0.0000 </r>
       <r>    1.1136    0.0000 </r>
       <r>    1.1321    0.0000 </r>
       <r>    1.1455    0.0000 </r>
      </set>
      <set comment="kpoint 5">
       <r>  -25.5149    1.0000 </r>
       <r>  -25.3529    1.0000 </r>
       <r>  -23.5161    1.0000 </r>
       <r>  -23.5151    1.0000 </r>
       <r>  -23.3951    1.0000 </r>
       <r>  -23.3876    1.0000 </r>
       <r>  -23.3316    1.0000 </r>
       <r>  -23.1919    1.0000 </r>
       <r>  -22.3176    1.0000 </r>
       <r>  -22.3150    1.0000 </r>
       <r>  -22.1713    1.0000 </r>
       <r>  -22.1702    1.0000 </r>
       <r>  -20.8256    1.0000 </r>
       <r>  -20.8126    1.0000 </r>
       <r>  -20.8105    1.0000 </r>
       <r>  -19.1730    1.0000 </r>
       <r>  -19.1704    1.0000 </r>
       <r>  -19.1578    1.0000 </r>
       <r>  -18.8393    1.0000 </r>
       <r>  -18.8384    1.0000 </r>
       <r>  -18.6485    1.0000 </r>
       <r>  -17.9116    1.0000 </r>
       <r>  -17.9056    1.0000 </r>
       <r>  -17.5413    1.0000 </r>
       <r>  -17.5353    1.0000 </r>
       <r>  -17.3582    1.0000 </r>
       <r>  -16.9166    1.0000 </r>
       <r>  -16.6559    1.0000 </r>
       <r>  -16.6260    1.0000 </r>
       <r>  -16.3470    1.0000 </r>
       <r>  -16.3446    1.0000 </r>
       <r>  -16.2121    1.0000 </r>
       <r>  -15.5641    1.0000 </r>
       <r>  -15.1772    1.0000 </r>
       <r>  -15.1431    1.0000 </r>
       <r>  -14.4410    1.0000 </r>
       <r>  -14.1790    1.0000 </r>
       <r>  -14.1776    1.0000 </r>
       <r>  -14.1350    1.0000 </r>
       <r>  -13.7167    1.0000 </r>
       <r>  -13.6916    1.0000 </r>
       <r>  -13.6854    1.0000 </r>
       <r>  -13.2235    1.0000 </r>
       <r>  -13.0605    1.0000 </r>
       <r>  -13.0550    1.0000 </r>
       <r>  -12.4831    1.0000 </r>
       <r>  -12.3163    1.0000 </r>
       <r>  -12.3113    1.0000 </r>
       <r>  -12.1658    1.0000 </r>
       <r>  -12.0768    1.0000 </r>
       <r>  -12.0618    1.0000 </r>
       <r>  -11.7731    1.0000 </r>
       <r>  -11.7607    1.0000 </r>
       <r>  -11.6402    1.0000 </r>
       <r>  -11.4768    1.0000 </r>
       <r>  -11.3503    1.0000 </r>
       <r>  -11.1790    1.0000 </r>
       <r>  -11.0198    1.0000 </r>
       <r>  -10.6764    1.0000 </r>
       <r>  -10.6729    1.0000 </r>
       <r>  -10.4351    1.0000 </r>
       <r>  -10.4192    1.0000 </r>
       <r>  -10.3313    1.0000 </r>
       <r>  -10.1510    1.0000 </r>
       <r>  -10.1485    1.0000 </r>
       <r>  -10.0194    1.0000 </r>
       <r>   -9.9507    1.0000 </r>
       <r>   -9.9485    1.0000 </r>
       <r>   -9.7958    1.0000 </r>
       <r>   -9.7882    1.0000 </r>
       <r>   -9.7717    1.0000 </r>
       <r>   -9.6105    1.0000 </r>
       <r>   -9.6058    1.0000 </r>
       <r>   -9.4865    1.0000 </r>
       <r>   -9.4396    1.0000 </r>
       <r>   -9.4375    1.0000 </r>
       <r>   -9.4242    1.0000 </r>
       <r>   -9.2882    1.0000 </r>
       <r>   -9.2838    1.0000 </r>
       <r>   -9.1548    1.0000 </r>
       <r>   -9.0498    1.0000 </r>
       <r>   -9.0472    1.0000 </r>
       <r>   -8.9386    1.0000 </r>
       <r>   -8.7814    1.0000 </r>
       <r>   -8.7397    1.0000 </r>
       <r>   -8.7374    1.0000 </r>
       <r>   -8.6854    1.0000 </r>
       <r>   -8.6491    1.0000 </r>
       <r>   -8.6432    1.0000 </r>
       <r>   -8.5676    1.0000 </r>
       <r>   -8.4886    1.0000 </r>
       <r>   -8.4811    1.0000 </r>
       <r>   -8.3631    1.0000 </r>
       <r>   -8.0258    1.0000 </r>
       <r>   -8.0178    1.0000 </r>
       <r>   -7.8417    1.0000 </r>
       <r>   -7.6707    1.0000 </r>
       <r>   -7.6542    1.0000 </r>
       <r>   -7.4508    1.0000 </r>
       <r>   -7.0988    1.0000 </r>
       <r>   -7.0903    1.0000 </r>
       <r>   -6.5055    1.0000 </r>
       <r>   -6.3910    1.0000 </r>
       <r>   -6.3851    1.0000 </r>
       <r>   -6.0839    1.0000 </r>
       <r>   -6.0800    1.0000 </r>
       <r>   -6.0726    1.0000 </r>
       <r>   -5.9899    1.0000 </r>
       <r>   -5.9878    1.0000 </r>
       <r>   -5.8550    1.0000 </r>
       <r>   -5.8520    1.0000 </r>
       <r>   -5.7439    1.0000 </r>
       <r>   -5.7236    1.0000 </r>
       <r>   -5.7215    1.0000 </r>
       <r>   -4.9592    1.0000 </r>
       <r>   -4.9560    1.0000 </r>
       <r>   -4.9400    1.0000 </r>
       <r>   -3.3611    0.0000 </r>
       <r>   -3.3573    0.0000 </r>
       <r>   -2.9273    0.0000 </r>
       <r>   -2.9054    0.0000 </r>
       <r>   -2.4154    0.0000 </r>
       <r>   -1.7671    0.0000 </r>
       <r>   -0.9558    0.0000 </r>
[...]
       <r>   -26.0690     0.0000     0.0000 </r>
       <r>   -25.9707     0.0000     0.0000 </r>
       <r>   -25.8724     0.0000     0.0000 </r>
       <r>   -25.7741     0.0000     0.0000 </r>
       <r>   -25.6758     0.0000     0.0000 </r>
       <r>   -25.5774     0.0000     0.0000 </r>
       <r>   -25.4791    20.3432     2.0000 </r>
       <r>   -25.3808     0.0008     2.0001 </r>
       <r>   -25.2825    20.3424     4.0000 </r>
       <r>   -25.1842     0.0000     4.0000 </r>
       <r>   -25.0859     0.0000     4.0000 </r>
       <r>   -24.9876     0.0000     4.0000 </r>
       <r>   -24.8893     0.0000     4.0000 </r>
       <r>   -24.7909     0.0000     4.0000 </r>
       <r>   -24.6926     0.0000     4.0000 </r>
       <r>   -24.5943     0.0000     4.0000 </r>
       <r>   -24.4960     0.0000     4.0000 </r>
       <r>   -24.3977     0.0000     4.0000 </r>
       <r>   -24.2994     0.0000     4.0000 </r>
       <r>   -24.2011     0.0000     4.0000 </r>
       <r>   -24.1028     0.0000     4.0000 </r>
       <r>   -24.0044     0.0000     4.0000 </r>
       <r>   -23.9061     0.0000     4.0000 </r>
       <r>   -23.8078     0.0000     4.0000 </r>
       <r>   -23.7095     0.0000     4.0000 </r>
       <r>   -23.6112     0.0000     4.0000 </r>
       <r>   -23.5129    20.0542     5.9716 </r>
       <r>   -23.4146    13.5255     9.3297 </r>
       <r>   -23.3163    28.6810    12.5201 </r>
       <r>   -23.2179    17.7269    14.5429 </r>
       <r>   -23.1196     6.0987    16.0000 </r>
       <r>   -23.0213     0.0000    16.0000 </r>
       <r>   -22.9230     0.0000    16.0000 </r>
       <r>   -22.8247     0.0000    16.0000 </r>
       <r>   -22.7264     0.0000    16.0000 </r>
       <r>   -22.6281     0.0000    16.0000 </r>
       <r>   -22.5297     0.0000    16.0000 </r>
       <r>   -22.4314     0.0000    16.0000 </r>
       <r>   -22.3331     0.2948    16.0290 </r>
       <r>   -22.2348    16.5942    20.0000 </r>
       <r>   -22.1365    40.6864    24.0000 </r>
       <r>   -22.0382     0.0000    24.0000 </r>
       <r>   -21.9399     0.0000    24.0000 </r>
       <r>   -21.8416     0.0000    24.0000 </r>
       <r>   -21.7432     0.0000    24.0000 </r>
       <r>   -21.6449     0.0000    24.0000 </r>
       <r>   -21.5466     0.0000    24.0000 </r>
       <r>   -21.4483     0.0000    24.0000 </r>
       <r>   -21.3500     0.0000    24.0000 </r>
       <r>   -21.2517     0.0000    24.0000 </r>
       <r>   -21.1534     0.0000    24.0000 </r>
       <r>   -21.0551     0.0000    24.0000 </r>
       <r>   -20.9567     0.0000    24.0000 </r>
       <r>   -20.8584     0.0000    24.0000 </r>
       <r>   -20.7601    61.0297    30.0000 </r>
       <r>   -20.6618     0.0000    30.0000 </r>
       <r>   -20.5635     0.0000    30.0000 </r>
       <r>   -20.4652     0.0000    30.0000 </r>
       <r>   -20.3669     0.0000    30.0000 </r>
       <r>   -20.2686     0.0000    30.0000 </r>
       <r>   -20.1702     0.0000    30.0000 </r>
       <r>   -20.0719     0.0000    30.0000 </r>
       <r>   -19.9736     0.0000    30.0000 </r>
       <r>   -19.8753     0.0000    30.0000 </r>
       <r>   -19.7770     0.0000    30.0000 </r>
       <r>   -19.6787     0.0000    30.0000 </r>
       <r>   -19.5804     0.0000    30.0000 </r>
       <r>   -19.4821     0.0000    30.0000 </r>
       <r>   -19.3837     0.0000    30.0000 </r>
       <r>   -19.2854     0.0000    30.0000 </r>
       <r>   -19.1871     0.6384    30.0628 </r>
       <r>   -19.0888    20.3429    36.0000 </r>
       <r>   -18.9905     0.0000    36.0000 </r>
       <r>   -18.8922     0.0000    36.0000 </r>
       <r>   -18.7939    31.1939    39.0668 </r>
       <r>   -18.6955    15.7018    41.1772 </r>
       <r>   -18.5972     6.4415    42.0000 </r>
       <r>   -18.4989     0.0000    42.0000 </r>
       <r>   -18.4006     0.0000    42.0000 </r>
       <r>   -18.3023     0.0000    42.0000 </r>
       <r>   -18.2040     0.0000    42.0000 </r>
       <r>   -18.1057     0.0000    42.0000 </r>
       <r>   -18.0074     0.0000    42.0000 </r>
       <r>   -17.9090    15.1818    43.4926 </r>
       <r>   -17.8107     9.3446    45.3521 </r>
       <r>   -17.7124     0.0000    46.0000 </r>
       <r>   -17.6141     0.0925    46.0091 </r>
       <r>   -17.5158    35.8924    49.9959 </r>
       <r>   -17.4175     0.0000    50.0000 </r>
       <r>   -17.3192    20.3432    52.0000 </r>
       <r>   -17.2209     0.0000    52.0000 </r>
       <r>   -17.1225     0.0000    52.0000 </r>
       <r>   -17.0242    12.1662    53.1961 </r>
       <r>   -16.9259     3.7856    53.6722 </r>
       <r>   -16.8276     2.3727    54.0000 </r>
       <r>   -16.7293     0.0000    54.0000 </r>
       <r>   -16.6310    22.9418    56.2555 </r>
       <r>   -16.5327     3.3724    56.6650 </r>
       <r>   -16.4344    12.8710    57.9989 </r>
       <r>   -16.3360    37.8582    61.7219 </r>
       <r>   -16.2377     0.0054    62.0005 </r>
       <r>   -16.1394     8.6860    62.8545 </r>
       <r>   -16.0411    10.0697    63.9234 </r>
       <r>   -15.9428     0.0001    64.0000 </r>
       <r>   -15.8445     8.8895    64.8740 </r>
       <r>   -15.7462     2.5433    65.2168 </r>
       <r>   -15.6479     2.1212    65.4752 </r>
       <r>   -15.5495     2.8159    65.7769 </r>
       <r>   -15.4512     1.3548    66.0000 </r>
       <r>   -15.3529     0.0000    66.0000 </r>
       <r>   -15.2546     0.0000    66.0000 </r>
       <r>   -15.1563    22.5965    68.2215 </r>
       <r>   -15.0580     2.5748    68.5531 </r>
       <r>   -14.9597     2.4428    68.8402 </r>
       <r>   -14.8614     7.7618    69.6632 </r>
       <r>   -14.7630     0.0000    70.0000 </r>
       <r>   -14.6647     0.0140    70.0014 </r>
       <r>   -14.5664    10.0030    71.1170 </r>
       <r>   -14.4681     3.5794    71.5519 </r>
       <r>   -14.3698     3.3902    72.0000 </r>
       <r>   -14.2715     0.0000    72.0000 </r>
       <r>   -14.1732    28.1759    74.7701 </r>
       <r>   -14.0748    20.3432    78.0000 </r>
       <r>   -13.9765     0.0000    78.0000 </r>
       <r>   -13.8782     0.0000    78.0000 </r>
       <r>   -13.7799     0.0000    78.0000 </r>
       <r>   -13.6816    34.7347    81.4149 </r>
       <r>   -13.5833    14.5789    84.0000 </r>
       <r>   -13.4850     0.0000    84.0000 </r>
       <r>   -13.3867     0.0000    84.0000 </r>
       <r>   -13.2883     0.0220    84.0022 </r>
       <r>   -13.1900    20.3212    86.0000 </r>
       <r>   -13.0917     6.8822    86.6766 </r>
       <r>   -12.9934    24.7421    90.0000 </r>
       <r>   -12.8951     0.0000    90.0000 </r>
       <r>   -12.7968     0.0000    90.0000 </r>
       <r>   -12.6985     0.0000    90.0000 </r>
       <r>   -12.6002     0.0000    90.0000 </r>
       <r>   -12.5018     0.0251    90.0025 </r>
       <r>   -12.4035    17.9595    92.0000 </r>
       <r>   -12.3052    24.1410    94.3734 </r>
       <r>   -12.2069    12.6975    96.0152 </r>
       <r>   -12.1086    16.4800    98.1541 </r>
       <r>   -12.0103    21.8932   100.7861 </r>
       <r>   -11.9120     3.7162   102.0000 </r>
       <r>   -11.8137    11.0958   103.0909 </r>
       <r>   -11.7153    14.9507   104.9032 </r>
       <r>   -11.6170    21.8321   107.4133 </r>
       <r>   -11.5187    11.2950   109.2440 </r>
       <r>   -11.4204     6.1016   110.0000 </r>
       <r>   -11.3221    20.3406   111.9997 </r>
       <r>   -11.2238     0.0000   112.0000 </r>
       <r>   -11.1255    16.2229   113.5949 </r>
       <r>   -11.0272    15.9944   115.5725 </r>
       <r>   -10.9288     0.0000   116.0000 </r>
       <r>   -10.8305     0.0000   116.0000 </r>
       <r>   -10.7322     0.0000   116.0000 </r>
       <r>   -10.6339    40.5402   119.9856 </r>
       <r>   -10.5356     0.0003   120.0000 </r>
       <r>   -10.4373    17.3179   121.7026 </r>
       <r>   -10.3390    19.1513   124.1831 </r>
       <r>   -10.2406    11.2506   125.4728 </r>
       <r>   -10.1423    38.7736   129.8119 </r>
       <r>   -10.0440     0.0014   130.0001 </r>
       <r>    -9.9457    56.6990   135.5744 </r>
       <r>    -9.8474     0.0002   136.0000 </r>
       <r>    -9.7491    58.5760   141.7588 </r>
       <r>    -9.6508     0.0000   142.0000 </r>
       <r>    -9.5525    36.7771   145.6157 </r>
       <r>    -9.4541    21.0869   148.0731 </r>
       <r>    -9.3558    22.3674   154.0000 </r>
       <r>    -9.2575    40.6840   157.9998 </r>
       <r>    -9.1592    16.2760   159.6001 </r>
       <r>    -9.0609     0.8342   160.0820 </r>
       <r>    -8.9626    14.5969   164.0021 </r>
       <r>    -8.8643    13.9189   165.5353 </r>
       <r>    -8.7660    20.2649   167.9923 </r>
       <r>    -8.6676    74.3139   175.3063 </r>
       <r>    -8.5693    25.5954   178.2177 </r>
       <r>    -8.4710    51.2316   183.8372 </r>
       <r>    -8.3727     1.5410   184.1515 </r>
       <r>    -8.2744     4.9090   184.8493 </r>
       <r>    -8.1761    10.5102   186.0000 </r>
       <r>    -8.0778    12.2601   187.2053 </r>
       <r>    -7.9795    26.7850   190.0000 </r>
       <r>    -7.8811     0.0000   190.0000 </r>
       <r>    -7.7828    20.3434   192.0000 </r>
       <r>    -7.6845    16.1608   193.5888 </r>
       <r>    -7.5862    22.7146   196.0000 </r>
       <r>    -7.4879     0.0038   196.0004 </r>
       <r>    -7.3896     6.4056   196.6301 </r>
       <r>    -7.2913     8.0391   197.5237 </r>
       <r>    -7.1930     8.1380   198.6002 </r>
       <r>    -7.0946    14.2149   200.3976 </r>
       <r>    -6.9963     0.0000   202.0000 </r>
       <r>    -6.8980     0.0000   202.0000 </r>
       <r>    -6.7997     0.0000   202.0000 </r>
       <r>    -6.7014     0.0000   202.0000 </r>
       <r>    -6.6031     0.0000   202.0000 </r>
       <r>    -6.5048     2.8155   202.2768 </r>
       <r>    -6.4064    26.0488   205.2612 </r>
       <r>    -6.3081    20.3028   208.0000 </r>
       <r>    -6.2098     0.0000   208.0000 </r>
       <r>    -6.1115     0.0700   208.0069 </r>
       <r>    -6.0132    51.5383   214.0015 </r>
       <r>    -5.9149    40.6713   218.0000 </r>
       <r>    -5.8166    40.6865   222.0000 </r>
       <r>    -5.7183    52.5109   227.1625 </r>
       <r>    -5.6199     0.0000   228.0000 </r>
       <r>    -5.5216     0.0000   228.0000 </r>
       <r>    -5.4233     0.0000   228.0000 </r>
       <r>    -5.3250     0.0000   228.0000 </r>
       <r>    -5.2267     0.0000   228.0000 </r>
       <r>    -5.1284     0.0000   228.0000 </r>
       <r>    -5.0301     0.0000   228.0000 </r>
       <r>    -4.9318    59.4469   233.8444 </r>
       <r>    -4.8334     0.0000   234.0000 </r>
       <r>    -4.7351     0.0000   234.0000 </r>
       <r>    -4.6368     0.0000   234.0000 </r>
       <r>    -4.5385     0.0000   234.0000 </r>
       <r>    -4.4402     0.0000   234.0000 </r>
       <r>    -4.3419     0.0000   234.0000 </r>
       <r>    -4.2436     0.0000   234.0000 </r>
       <r>    -4.1453     0.0000   234.0000 </r>
       <r>    -4.0469     0.0000   234.0000 </r>
       <r>    -3.9486     0.0000   234.0000 </r>
       <r>    -3.8503     0.0000   234.0000 </r>
       <r>    -3.7520     0.0000   234.0000 </r>
       <r>    -3.6537     0.0000   234.0000 </r>
       <r>    -3.5554     0.0000   234.0000 </r>
       <r>    -3.4571     0.0000   234.0000 </r>
       <r>    -3.3588    15.5691   235.5306 </r>
       <r>    -3.2604     7.3772   237.2253 </r>
       <r>    -3.1621     4.7550   238.0344 </r>
       <r>    -3.0638     8.4320   239.1290 </r>
       <r>    -2.9655     3.3244   239.5269 </r>
       <r>    -2.8672    24.0728   242.0000 </r>
       <r>    -2.7689     0.0000   242.0000 </r>
       <r>    -2.6706     0.0000   242.0000 </r>
       <r>    -2.5722     0.0000   242.0000 </r>
       <r>    -2.4739     0.0000   242.0000 </r>
       <r>    -2.3756     4.5409   242.4464 </r>
       <r>    -2.2773     2.6182   242.7574 </r>
       <r>    -2.1790     3.0501   243.0999 </r>
       <r>    -2.0807     5.3825   243.8959 </r>
       <r>    -1.9824     5.6717   244.5578 </r>
       <r>    -1.8841     3.3927   245.2003 </r>
       <r>    -1.7857     3.3978   245.6007 </r>
       <r>    -1.6874     3.0498   246.0000 </r>
       <r>    -1.5891     0.0000   246.0000 </r>
       <r>    -1.4908     0.0000   246.0000 </r>
       <r>    -1.3925     0.0000   246.0000 </r>
       <r>    -1.2942     0.0000   246.0000 </r>
       <r>    -1.1959     0.0000   246.0000 </r>
       <r>    -1.0976     0.0000   246.0000 </r>
       <r>    -0.9992     0.0000   246.0000 </r>
       <r>    -0.9009    61.0297   252.0000 </r>
       <r>    -0.8026     0.0000   252.0000 </r>
       <r>    -0.7043     4.0856   252.4017 </r>
       <r>    -0.6060     4.4181   254.7012 </r>
       <r>    -0.5077     5.2230   255.2803 </r>
       <r>    -0.4094     6.1156   256.1346 </r>
       <r>    -0.3111     7.8825   257.0417 </r>
       <r>    -0.2127    15.5893   258.6660 </r>
       <r>    -0.1144    30.0803   262.3908 </r>
       <r>    -0.0161     7.7981   264.0000 </r>
       <r>     0.0822    27.1465   266.6689 </r>
       <r>     0.1805    26.4897   269.8047 </r>
       <r>     0.2788    35.3159   273.5065 </r>
       <r>     0.3771    20.4523   276.4441 </r>
       <r>     0.4754    33.3281   280.5440 </r>
       <r>     0.5738    21.6052   283.3584 </r>
       <r>     0.6721    32.3032   286.7095 </r>
       <r>     0.7704    59.0096   293.3681 </r>
       <r>     0.8687    41.8422   298.5153 </r>
       <r>     0.9670    49.1913   304.7369 </r>
       <r>     1.0653    49.2622   310.4775 </r>
       <r>     1.1636    36.9927   315.0043 </r>
       <r>     1.2619    35.0322   319.5451 </r>
       <r>     1.3603     2.7105   320.0000 </r>
       <r>     1.4586     0.0000   320.0000 </r>
       <r>     1.5569     0.0000   320.0000 </r>
       <r>     1.6552     0.0000   320.0000 </r>
       <r>     1.7535     0.0000   320.0000 </r>
       <r>     1.8518     0.0000   320.0000 </r>
       <r>     1.9501     0.0000   320.0000 </r>
       <r>     2.0485     0.0000   320.0000 </r>
       <r>     2.1468     0.0000   320.0000 </r>
       <r>     2.2451     0.0000   320.0000 </r>
       <r>     2.3434     0.0000   320.0000 </r>
       <r>     2.4417     0.0000   320.0000 </r>
       <r>     2.5400     0.0000   320.0000 </r>
       <r>     2.6383     0.0000   320.0000 </r>
      </set>
     </set>
    </array>
   </total>
  </dos>
 </calculation>
 <structure name="finalpos" >
  <crystal>
   <varray name="basis" >
    <v>      21.95413030       0.00077054       0.00000000 </v>
    <v>     -10.97660301      19.08378087       0.00000000 </v>
    <v>       0.00000000       0.00000000      20.00000000 </v>
   </varray>
   <i name="volume">   8379.52539665 </i>
   <varray name="rec_basis" >
    <v>       0.04554860       0.02619863       0.00000000 </v>
    <v>      -0.00000184       0.05239946       0.00000000 </v>
    <v>       0.00000000       0.00000000       0.05000000 </v>
   </varray>
  </crystal>
  <varray name="positions" >
   <v>       0.76400682       0.40472826       0.54652527 </v>
   <v>       0.65561854       0.30819240       0.54626600 </v>
   <v>       0.66706829       0.41634900       0.54657002 </v>
   <v>       0.63807593       0.46400185       0.54687080 </v>
   <v>       0.84073237       0.43376396       0.54684209 </v>
   <v>       0.60807849       0.23172355       0.54636468 </v>
   <v>       0.29551238       0.68957632       0.51280418 </v>
   <v>       0.40844675       0.77799976       0.51355222 </v>
   <v>       0.38431123       0.66531164       0.51255655 </v>
   <v>       0.40561201       0.61138034       0.51408177 </v>
   <v>       0.22012465       0.66805029       0.51463210 </v>
   <v>       0.54632432       0.48789345       0.53990888 </v>
   <v>       0.48184055       0.46911062       0.57242370 </v>
   <v>       0.45412940       0.51467990       0.57018124 </v>
   <v>       0.44468206       0.40119258       0.61053813 </v>
   <v>       0.38925392       0.49683214       0.61056285 </v>
   <v>       0.95604427       0.52585480       0.54044841 </v>
   <v>       0.00109635       0.59029470       0.57295567 </v>
   <v>       0.07451488       0.61855436       0.57060187 </v>
   <v>       0.96950170       0.62686869       0.61105287 </v>
   <v>       0.12085122       0.68357304       0.61076260 </v>
   <v>       0.58483016       0.11661264       0.53981353 </v>
   <v>       0.60432701       0.07154898       0.57232502 </v>
   <v>       0.67274327       0.10289922       0.60998489 </v>
   <v>       0.49034935       0.57789918       0.53277667 </v>
   <v>       0.55470492       0.59589492       0.50132802 </v>
   <v>       0.58186763       0.55133454       0.50389560 </v>
   <v>       0.10227404       0.58284098       0.53320234 </v>
   <v>       0.05651269       0.51852768       0.50176745 </v>
   <v>       0.98467243       0.49087807       0.50437896 </v>
   <v>       0.52098256       0.08826213       0.50413262 </v>
   <v>       0.46228802       0.85311075       0.51533098 </v>
   <v>       0.55902726       0.99840393       0.57047283 </v>
   <v>       0.57785741       0.95213337       0.61073043 </v>
   <v>       0.49528643       0.97091562       0.53354730 </v>
   <v>       0.47662645       0.01666856       0.50204040 </v>
   <v>       0.55190129       0.21568988       0.55021904 </v>
   <v>       0.85693856       0.39381437       0.55052234 </v>
   <v>       0.67819313       0.51993253       0.55095989 </v>
   <v>       0.20885301       0.71076930       0.50517570 </v>
   <v>       0.36259324       0.55774942       0.50414698 </v>
   <v>       0.46533557       0.36687789       0.59605389 </v>
   <v>       0.45253917       0.40997231       0.66489454 </v>
   <v>       0.38772741       0.37400040       0.60161566 </v>
   <v>       0.38361523       0.54284779       0.61989866 </v>
   <v>       0.34084499       0.45747519       0.58550157 </v>
   <v>       0.39101537       0.47465455       0.65923057 </v>
   <v>       0.91438084       0.60570476       0.59666247 </v>
   <v>       0.97067272       0.61924605       0.66542738 </v>
   <v>       0.99849363       0.68365368       0.60200889 </v>
   <v>       0.17291515       0.68990990       0.62005141 </v>
   <v>       0.12898556       0.73152528       0.58549890 </v>
   <v>       0.09682708       0.68172911       0.65943957 </v>
   <v>       0.70675765       0.15762696       0.59500106 </v>
   <v>       0.66434894       0.10247572       0.66437445 </v>
   <v>       0.70023738       0.07342750       0.60117759 </v>
   <v>       0.63018094       0.56432219       0.47720987 </v>
   <v>       0.58141067       0.64530723       0.47404245 </v>
   <v>       0.94977379       0.44261965       0.47768850 </v>
   <v>       0.07978141       0.49226882       0.47442105 </v>
   <v>       0.50748934       0.12311558       0.47738855 </v>
   <v>       0.51616952       0.86397087       0.50540307 </v>
   <v>       0.53215702       0.90039712       0.62033499 </v>
   <v>       0.61753582       0.94361606       0.58539545 </v>
   <v>       0.60026467       0.97632238       0.65925790 </v>
   <v>       0.42686574       0.99358259       0.47508378 </v>
   <v>       0.72577331       0.33435846       0.54638931 </v>
   <v>       0.62326776       0.34641846       0.54647734 </v>
   <v>       0.73762964       0.44845601       0.54672590 </v>
   <v>       0.33980452       0.75906381       0.51331614 </v>
   <v>       0.43385543       0.73373089       0.51304004 </v>
   <v>       0.31463139       0.64012630       0.51171869 </v>
   <v>       0.57179194       0.44132448       0.54346226 </v>
   <v>       0.88390291       0.49994836       0.54394231 </v>
   <v>       0.63117427       0.18849569       0.54320893 </v>
   <v>       0.46916072       0.62767246       0.52662737 </v>
   <v>       0.17344001       0.60444194       0.52687603 </v>
   <v>       0.44560854       0.90002686       0.52775486 </v>
  </varray>
 </structure>
</modeling>
