<?xml version="1.0" encoding="ISO-8859-1"?>
<modeling>
 <generator>
  <i name="program" type="string">vasp </i>
  <i name="version" type="string">5.4.4.18Apr17-6-g9f103f2a35  </i>
  <i name="subversion" type="string">(build Jun 07 2020 16:50:00) complex            parallel </i>
  <i name="platform" type="string">LinuxIFC </i>
  <i name="date" type="string">2023 03 05 </i>
  <i name="time" type="string">07:17:27 </i>
 </generator>
 <incar>
  <i type="string" name="SYSTEM">Simulation for cell shape cell volume r</i>
  <i type="int" name="ISTART">     1</i>
  <i type="string" name="PREC">high</i>
  <i type="string" name="ALGO">48</i>
  <i type="int" name="ICHARG">    11</i>
  <i type="int" name="NELM">   200</i>
  <i type="int" name="IBRION">    -1</i>
  <i name="EDIFF">      0.00001000</i>
  <i name="EDIFFG">     -0.01000000</i>
  <i type="int" name="NSW">     0</i>
  <i type="int" name="ISIF">     2</i>
  <i name="ENCUT">    500.00000000</i>
  <i name="POTIM">      0.30000000</i>
  <i type="string" name="LREAL">A</i>
  <i type="int" name="ISMEAR">     0</i>
  <i name="SIGMA">      0.01000000</i>
  <i type="int" name="NWRITE">     0</i>
  <i type="logical" name="LWAVE"> F  </i>
  <i type="logical" name="LCHARG"> F  </i>
  <v type="int" name="KPOINT_BSE">    -1     0     0     0</v>
  <i type="int" name="NELM">   200</i>
  <i type="string" name="GGA">PE</i>
 </incar>
 <structure name="primitive_cell" >
  <crystal>
   <varray name="basis" >
    <v>      33.88669943       0.01257998       0.00000000 </v>
    <v>     -16.92773453      29.32597421       0.00000000 </v>
    <v>       0.00000000       0.00000000      20.00000000 </v>
   </varray>
   <i name="volume">  19879.46847847 </i>
   <varray name="rec_basis" >
    <v>       0.02950378       0.01703037       0.00000000 </v>
    <v>      -0.00001266       0.03409216       0.00000000 </v>
    <v>       0.00000000       0.00000000       0.05000000 </v>
   </varray>
  </crystal>
  <varray name="positions" >
   <v>       0.15695126      -0.03982999      -0.45350641 </v>
   <v>       0.12118582      -0.05748527      -0.46829170 </v>
   <v>       0.09763130      -0.03366518      -0.46918959 </v>
   <v>       0.09936033      -0.10421920      -0.48444442 </v>
   <v>       0.18921382      -0.07131079       0.48733326 </v>
   <v>       0.11476107       0.00246786      -0.45662569 </v>
   <v>       0.17143917      -0.10728955      -0.49888084 </v>
   <v>       0.12453938      -0.12939098      -0.48397038 </v>
   <v>       0.05273883      -0.12616446       0.49888352 </v>
   <v>       0.05103581      -0.05601545      -0.48515693 </v>
   <v>       0.02885270      -0.10267438       0.49907237 </v>
   <v>       0.19529715      -0.13079551      -0.49807517 </v>
   <v>       0.10243880      -0.17627118      -0.46865516 </v>
   <v>       0.03523154      -0.16199409       0.48431095 </v>
   <v>       0.23154458      -0.11347497       0.49024527 </v>
   <v>       0.06644652      -0.19405742      -0.45510232 </v>
   <v>       0.02581719      -0.03086985      -0.48524603 </v>
   <v>       0.05022098       0.01497731      -0.48505333 </v>
   <v>      -0.00719490      -0.11991787       0.48611248 </v>
   <v>       0.17281599      -0.17762996      -0.48329425 </v>
   <v>       0.12597439      -0.20010815      -0.46879596 </v>
   <v>       0.11441549       0.09194668       0.48542822 </v>
   <v>      -0.01998586      -0.05540182      -0.48538790 </v>
   <v>       0.10865564      -0.23634840      -0.45688846 </v>
   <v>       0.02568466       0.03627960      -0.48508589 </v>
   <v>       0.19791984      -0.20283401      -0.48336400 </v>
   <v>       0.09737168       0.11092993       0.49863164 </v>
   <v>       0.24397174      -0.17819258      -0.48399966 </v>
   <v>       0.05083413       0.08663556      -0.48505714 </v>
   <v>      -0.04137934      -0.03094144      -0.48514182 </v>
   <v>      -0.02012958       0.01491257      -0.48506066 </v>
   <v>       0.17310763      -0.24890420      -0.48297600 </v>
   <v>       0.15666567       0.17646697       0.48324587 </v>
   <v>       0.12093670       0.15830442       0.49821557 </v>
   <v>      -0.09677798      -0.12005405      -0.45703917 </v>
   <v>       0.33188500      -0.13278299      -0.41295698 </v>
   <v>       0.26480020      -0.20296081      -0.48740048 </v>
   <v>      -0.09169675      -0.05622659      -0.48482788 </v>
   <v>       0.02867698       0.11103319      -0.46866686 </v>
   <v>      -0.11583936      -0.10292495      -0.46925410 </v>
   <v>       0.19758479      -0.27004118      -0.48161482 </v>
   <v>      -0.00734947       0.09215366      -0.45557675 </v>
   <v>       0.09917165       0.18314223      -0.48481581 </v>
   <v>       0.34500419      -0.14786670      -0.44849215 </v>
   <v>       0.31503229      -0.18120691      -0.49326868 </v>
   <v>       0.24331058      -0.24879638      -0.48536397 </v>
   <v>       0.18906576       0.23998526      -0.45636713 </v>
   <v>       0.05257992       0.15841108      -0.46799177 </v>
   <v>      -0.11621589      -0.03400365       0.49998670 </v>
   <v>      -0.09747135       0.00214294       0.48745075 </v>
   <v>      -0.16317032      -0.12656382      -0.46829570 </v>
   <v>       0.12730773      -0.33672881       0.44343447 </v>
   <v>       0.17551490      -0.32036803      -0.47609064 </v>
   <v>       0.17128070       0.25823043      -0.46985570 </v>
   <v>       0.12437167       0.23349279      -0.48472178 </v>
   <v>       0.39064918      -0.13690700      -0.44570564 </v>
   <v>       0.33231636      -0.19963265       0.46002404 </v>
   <v>      -0.18119317      -0.16241724      -0.45383700 </v>
   <v>       0.03511067       0.17667024      -0.45287488 </v>
   <v>       0.41304976      -0.11352537      -0.40735872 </v>
   <v>       0.30901674      -0.22557126       0.42513781 </v>
   <v>       0.14217478      -0.35009685       0.47893588 </v>
   <v>       0.21951610      -0.31485866      -0.39431984 </v>
   <v>      -0.16354952      -0.05797042       0.49985115 </v>
   <v>       0.19360490      -0.33797898      -0.42939080 </v>
   <v>      -0.18812553      -0.10471184      -0.48396557 </v>
   <v>       0.37814663      -0.18682890       0.46054455 </v>
   <v>       0.40737897      -0.15737148      -0.48969606 </v>
   <v>       0.19514696       0.30560136      -0.47036677 </v>
   <v>       0.10226414       0.25833611      -0.49954992 </v>
   <v>       0.23140907       0.32448543      -0.45878962 </v>
   <v>       0.06624700       0.24015706       0.48705026 </v>
   <v>      -0.18190183      -0.04041067       0.48571745 </v>
   <v>       0.13095249      -0.39585609       0.47587702 </v>
   <v>       0.39102640      -0.20242140       0.42550132 </v>
   <v>      -0.24499384      -0.19463614       0.48751671 </v>
   <v>       0.18051910      -0.38391974      -0.43015852 </v>
   <v>      -0.23842650      -0.12995104      -0.48354314 </v>
   <v>       0.10769168      -0.41805877       0.43725991 </v>
   <v>       0.17268157       0.33002014      -0.48483641 </v>
   <v>       0.12580583       0.30570738      -0.49915306 </v>
   <v>       0.45102897      -0.15728031      -0.48003774 </v>
   <v>       0.15112737      -0.41290774      -0.48017673 </v>
   <v>      -0.26318691      -0.17684942      -0.49871233 </v>
   <v>       0.42307891      -0.20130362      -0.39404419 </v>
   <v>       0.19586789      -0.39707361      -0.39514468 </v>
   <v>       0.48840271      -0.11456893       0.43625241 </v>
   <v>      -0.24501179      -0.07189749      -0.45427187 </v>
   <v>       0.45126024      -0.18611468      -0.42958328 </v>
   <v>      -0.26319870      -0.10786595      -0.46810653 </v>
   <v>       0.48782688      -0.13737599       0.47528242 </v>
   <v>       0.10846575       0.32465415       0.48920408 </v>
   <v>       0.19790488       0.38033047      -0.48511590 </v>
   <v>       0.24394937       0.40158242      -0.48441652 </v>
   <v>      -0.31051796      -0.20068610      -0.49823871 </v>
   <v>       0.15124647      -0.45643679      -0.49043287 </v>
   <v>       0.19622729      -0.42716117       0.42487175 </v>
   <v>      -0.32940459      -0.23692805       0.48986377 </v>
   <v>       0.33189078       0.44347803       0.44282328 </v>
   <v>      -0.31052477      -0.13136495      -0.46858654 </v>
   <v>       0.48433922      -0.19889001      -0.42892811 </v>
   <v>       0.18085044      -0.45578022       0.45968744 </v>
   <v>      -0.47741218      -0.14824925       0.47819654 </v>
   <v>       0.10762594      -0.49503621      -0.40819646 </v>
   <v>       0.17326151       0.40176841      -0.48607246 </v>
   <v>      -0.33485827      -0.17817614      -0.48354377 </v>
   <v>       0.13104581      -0.49377832      -0.44670130 </v>
   <v>       0.26501607       0.44721143      -0.48289429 </v>
   <v>       0.48200214      -0.22441214      -0.39342108 </v>
   <v>       0.34514360       0.47172415       0.47829465 </v>
   <v>      -0.48035050      -0.18101578      -0.47622927 </v>
   <v>      -0.44951987      -0.13357445       0.44215558 </v>
   <v>      -0.32942429      -0.11403160      -0.45662529 </v>
   <v>       0.31529065       0.47542565      -0.47708548 </v>
   <v>       0.19796406       0.44736743      -0.48901829 </v>
   <v>       0.19408142      -0.48852218       0.45883424 </v>
   <v>       0.24376680       0.47174365      -0.48659212 </v>
   <v>       0.39090581      -0.49384474       0.47554457 </v>
   <v>       0.41319323      -0.49503854       0.43718305 </v>
   <v>       0.14243432       0.47181316      -0.44985830 </v>
   <v>      -0.38511512      -0.20322282      -0.48399595 </v>
   <v>       0.22011538      -0.48556215       0.42387824 </v>
   <v>       0.33276939      -0.48887139      -0.43038807 </v>
   <v>      -0.45193328      -0.20291756      -0.48189088 </v>
   <v>      -0.40651102      -0.24930216      -0.48502916 </v>
   <v>       0.17594744       0.47564705      -0.49467215 </v>
   <v>       0.30959192      -0.48602382      -0.39550367 </v>
   <v>       0.12756237       0.44346458      -0.41456250 </v>
   <v>      -0.47639476      -0.24868854      -0.48553234 </v>
   <v>       0.40783707      -0.45660648      -0.48053038 </v>
   <v>      -0.40632566      -0.17833806      -0.48337890 </v>
   <v>       0.37869125      -0.45610667      -0.43085909 </v>
   <v>       0.48095346      -0.31458828       0.42474662 </v>
   <v>      -0.44852347      -0.33720674      -0.41401231 </v>
   <v>      -0.45206720      -0.27018661      -0.48804999 </v>
   <v>       0.39174856      -0.42759831      -0.39585701 </v>
   <v>       0.48985123      -0.41852236      -0.40826572 </v>
   <v>       0.45144609      -0.41301273      -0.49040350 </v>
   <v>       0.48380904      -0.33785539       0.45947467 </v>
   <v>       0.42242103      -0.39675530       0.42514930 </v>
   <v>      -0.47678530      -0.35042050      -0.44940964 </v>
   <v>      -0.48042227      -0.32047167      -0.49397116 </v>
   <v>       0.45097315      -0.38377524       0.46001264 </v>
   <v>       0.48871067      -0.39617351      -0.44659586 </v>
  </varray>
 </structure>
 <varray name="primitive_index" >
  <v type="int" >        1 </v>
  <v type="int" >       77 </v>
  <v type="int" >       78 </v>
  <v type="int" >      111 </v>
  <v type="int" >       25 </v>
  <v type="int" >        2 </v>
  <v type="int" >      109 </v>
  <v type="int" >       76 </v>
  <v type="int" >      114 </v>
  <v type="int" >      112 </v>
  <v type="int" >      113 </v>
  <v type="int" >      110 </v>
  <v type="int" >       75 </v>
  <v type="int" >       28 </v>
  <v type="int" >       26 </v>
  <v type="int" >        4 </v>
  <v type="int" >       63 </v>
  <v type="int" >       51 </v>
  <v type="int" >       27 </v>
  <v type="int" >       73 </v>
  <v type="int" >       74 </v>
  <v type="int" >       35 </v>
  <v type="int" >       50 </v>
  <v type="int" >        3 </v>
  <v type="int" >       61 </v>
  <v type="int" >       65 </v>
  <v type="int" >      125 </v>
  <v type="int" >       53 </v>
  <v type="int" >      124 </v>
  <v type="int" >       62 </v>
  <v type="int" >       49 </v>
  <v type="int" >       52 </v>
  <v type="int" >       36 </v>
  <v type="int" >      126 </v>
  <v type="int" >        6 </v>
  <v type="int" >       14 </v>
  <v type="int" >       66 </v>
  <v type="int" >      118 </v>
  <v type="int" >       90 </v>
  <v type="int" >       84 </v>
  <v type="int" >       64 </v>
  <v type="int" >       10 </v>
  <v type="int" >      123 </v>
  <v type="int" >       92 </v>
  <v type="int" >      127 </v>
  <v type="int" >       54 </v>
  <v type="int" >       12 </v>
  <v type="int" >       89 </v>
  <v type="int" >      119 </v>
  <v type="int" >       31 </v>
  <v type="int" >       83 </v>
  <v type="int" >       46 </v>
  <v type="int" >      106 </v>
  <v type="int" >       87 </v>
  <v type="int" >       88 </v>
  <v type="int" >       91 </v>
  <v type="int" >      128 </v>
  <v type="int" >        5 </v>
  <v type="int" >        9 </v>
  <v type="int" >       13 </v>
  <v type="int" >       39 </v>
  <v type="int" >      144 </v>
  <v type="int" >       23 </v>
  <v type="int" >      120 </v>
  <v type="int" >      107 </v>
  <v type="int" >      117 </v>
  <v type="int" >      129 </v>
  <v type="int" >      130 </v>
  <v type="int" >       86 </v>
  <v type="int" >      121 </v>
  <v type="int" >       11 </v>
  <v type="int" >       33 </v>
  <v type="int" >       32 </v>
  <v type="int" >      143 </v>
  <v type="int" >       40 </v>
  <v type="int" >       29 </v>
  <v type="int" >      108 </v>
  <v type="int" >       82 </v>
  <v type="int" >       45 </v>
  <v type="int" >       85 </v>
  <v type="int" >      122 </v>
  <v type="int" >       93 </v>
  <v type="int" >      105 </v>
  <v type="int" >      115 </v>
  <v type="int" >       16 </v>
  <v type="int" >       24 </v>
  <v type="int" >       37 </v>
  <v type="int" >        8 </v>
  <v type="int" >       96 </v>
  <v type="int" >       81 </v>
  <v type="int" >      131 </v>
  <v type="int" >       34 </v>
  <v type="int" >       71 </v>
  <v type="int" >       58 </v>
  <v type="int" >      116 </v>
  <v type="int" >      142 </v>
  <v type="int" >       48 </v>
  <v type="int" >       30 </v>
  <v type="int" >       42 </v>
  <v type="int" >       80 </v>
  <v type="int" >       95 </v>
  <v type="int" >      141 </v>
  <v type="int" >      132 </v>
  <v type="int" >       21 </v>
  <v type="int" >       59 </v>
  <v type="int" >       79 </v>
  <v type="int" >      103 </v>
  <v type="int" >       70 </v>
  <v type="int" >       15 </v>
  <v type="int" >      138 </v>
  <v type="int" >       94 </v>
  <v type="int" >       38 </v>
  <v type="int" >        7 </v>
  <v type="int" >      100 </v>
  <v type="int" >       72 </v>
  <v type="int" >      140 </v>
  <v type="int" >       60 </v>
  <v type="int" >      137 </v>
  <v type="int" >       41 </v>
  <v type="int" >      104 </v>
  <v type="int" >       68 </v>
  <v type="int" >       47 </v>
  <v type="int" >      101 </v>
  <v type="int" >       67 </v>
  <v type="int" >       56 </v>
  <v type="int" >      139 </v>
  <v type="int" >       19 </v>
  <v type="int" >       22 </v>
  <v type="int" >       57 </v>
  <v type="int" >       99 </v>
  <v type="int" >       55 </v>
  <v type="int" >      102 </v>
  <v type="int" >       43 </v>
  <v type="int" >       18 </v>
  <v type="int" >       69 </v>
  <v type="int" >       20 </v>
  <v type="int" >       17 </v>
  <v type="int" >      136 </v>
  <v type="int" >      134 </v>
  <v type="int" >       44 </v>
  <v type="int" >       98 </v>
  <v type="int" >      133 </v>
  <v type="int" >      135 </v>
  <v type="int" >       97 </v>
 </varray>
 <kpoints>
  <generation param="listgenerated">
   <i name="divisions" type="int">      20 </i>
   <v>       0.00000000       0.00000000       0.00000000 </v>
   <v>       0.50000000       0.00000000       0.00000000 </v>
   <v>       0.33333333       0.33333333       0.00000000 </v>
   <v>       0.00000000       0.00000000       0.00000000 </v>
  </generation>
  <varray name="kpointlist" >
   <v>       0.00000000       0.00000000       0.00000000 </v>
   <v>       0.02631579       0.00000000       0.00000000 </v>
   <v>       0.05263158       0.00000000       0.00000000 </v>
   <v>       0.07894737       0.00000000       0.00000000 </v>
   <v>       0.10526316       0.00000000       0.00000000 </v>
   <v>       0.13157895       0.00000000       0.00000000 </v>
   <v>       0.15789474       0.00000000       0.00000000 </v>
   <v>       0.18421053       0.00000000       0.00000000 </v>
   <v>       0.21052632       0.00000000       0.00000000 </v>
   <v>       0.23684211       0.00000000       0.00000000 </v>
   <v>       0.26315789       0.00000000       0.00000000 </v>
   <v>       0.28947368       0.00000000       0.00000000 </v>
   <v>       0.31578947       0.00000000       0.00000000 </v>
   <v>       0.34210526       0.00000000       0.00000000 </v>
   <v>       0.36842105       0.00000000       0.00000000 </v>
   <v>       0.39473684       0.00000000       0.00000000 </v>
   <v>       0.42105263       0.00000000       0.00000000 </v>
   <v>       0.44736842       0.00000000       0.00000000 </v>
   <v>       0.47368421       0.00000000       0.00000000 </v>
   <v>       0.50000000       0.00000000       0.00000000 </v>
   <v>       0.50000000       0.00000000       0.00000000 </v>
   <v>       0.49122807       0.01754386       0.00000000 </v>
   <v>       0.48245614       0.03508772       0.00000000 </v>
   <v>       0.47368421       0.05263158       0.00000000 </v>
   <v>       0.46491228       0.07017544       0.00000000 </v>
   <v>       0.45614035       0.08771930       0.00000000 </v>
   <v>       0.44736842       0.10526316       0.00000000 </v>
   <v>       0.43859649       0.12280702       0.00000000 </v>
   <v>       0.42982456       0.14035088       0.00000000 </v>
   <v>       0.42105263       0.15789474       0.00000000 </v>
   <v>       0.41228070       0.17543860       0.00000000 </v>
   <v>       0.40350877       0.19298246       0.00000000 </v>
   <v>       0.39473684       0.21052632       0.00000000 </v>
   <v>       0.38596491       0.22807018       0.00000000 </v>
   <v>       0.37719298       0.24561404       0.00000000 </v>
   <v>       0.36842105       0.26315789       0.00000000 </v>
   <v>       0.35964912       0.28070175       0.00000000 </v>
   <v>       0.35087719       0.29824561       0.00000000 </v>
   <v>       0.34210526       0.31578947       0.00000000 </v>
   <v>       0.33333333       0.33333333       0.00000000 </v>
   <v>       0.33333333       0.33333333       0.00000000 </v>
   <v>       0.31578947       0.31578947       0.00000000 </v>
   <v>       0.29824561       0.29824561       0.00000000 </v>
   <v>       0.28070175       0.28070175       0.00000000 </v>
   <v>       0.26315789       0.26315789       0.00000000 </v>
   <v>       0.24561404       0.24561404       0.00000000 </v>
   <v>       0.22807018       0.22807018       0.00000000 </v>
   <v>       0.21052632       0.21052632       0.00000000 </v>
   <v>       0.19298246       0.19298246       0.00000000 </v>
   <v>       0.17543860       0.17543860       0.00000000 </v>
   <v>       0.15789474       0.15789474       0.00000000 </v>
   <v>       0.14035088       0.14035088       0.00000000 </v>
   <v>       0.12280702       0.12280702       0.00000000 </v>
   <v>       0.10526316       0.10526316       0.00000000 </v>
   <v>       0.08771930       0.08771930       0.00000000 </v>
   <v>       0.07017544       0.07017544       0.00000000 </v>
   <v>       0.05263158       0.05263158       0.00000000 </v>
   <v>       0.03508772       0.03508772       0.00000000 </v>
   <v>       0.01754386       0.01754386       0.00000000 </v>
   <v>       0.00000000       0.00000000       0.00000000 </v>
  </varray>
  <varray name="weights" >
   <v>       0.01666667 </v>
   <v>       0.01666667 </v>
   <v>       0.01666667 </v>
   <v>       0.01666667 </v>
   <v>       0.01666667 </v>
   <v>       0.01666667 </v>
   <v>       0.01666667 </v>
   <v>       0.01666667 </v>
   <v>       0.01666667 </v>
   <v>       0.01666667 </v>
   <v>       0.01666667 </v>
   <v>       0.01666667 </v>
   <v>       0.01666667 </v>
   <v>       0.01666667 </v>
   <v>       0.01666667 </v>
   <v>       0.01666667 </v>
   <v>       0.01666667 </v>
   <v>       0.01666667 </v>
   <v>       0.01666667 </v>
   <v>       0.01666667 </v>
   <v>       0.01666667 </v>
   <v>       0.01666667 </v>
   <v>       0.01666667 </v>
   <v>       0.01666667 </v>
   <v>       0.01666667 </v>
   <v>       0.01666667 </v>
   <v>       0.01666667 </v>
   <v>       0.01666667 </v>
   <v>       0.01666667 </v>
   <v>       0.01666667 </v>
   <v>       0.01666667 </v>
   <v>       0.01666667 </v>
   <v>       0.01666667 </v>
   <v>       0.01666667 </v>
   <v>       0.01666667 </v>
   <v>       0.01666667 </v>
   <v>       0.01666667 </v>
   <v>       0.01666667 </v>
   <v>       0.01666667 </v>
   <v>       0.01666667 </v>
   <v>       0.01666667 </v>
   <v>       0.01666667 </v>
   <v>       0.01666667 </v>
   <v>       0.01666667 </v>
   <v>       0.01666667 </v>
   <v>       0.01666667 </v>
   <v>       0.01666667 </v>
   <v>       0.01666667 </v>
   <v>       0.01666667 </v>
   <v>       0.01666667 </v>
   <v>       0.01666667 </v>
   <v>       0.01666667 </v>
   <v>       0.01666667 </v>
   <v>       0.01666667 </v>
   <v>       0.01666667 </v>
   <v>       0.01666667 </v>
   <v>       0.01666667 </v>
   <v>       0.01666667 </v>
   <v>       0.01666667 </v>
   <v>       0.01666667 </v>
  </varray>
 </kpoints>
 <parameters>
  <separator name="general" >
   <i type="string" name="SYSTEM">Simulation for cell shape cell volume r</i>
   <i type="logical" name="LCOMPAT"> F  </i>
  </separator>
  <separator name="electronic" >
   <i type="string" name="PREC">high</i>
   <i name="ENMAX">    500.00000000</i>
   <i name="ENAUG">    644.87300000</i>
   <i name="EDIFF">      0.00001000</i>
   <i type="int" name="IALGO">    38</i>
   <i type="int" name="IWAVPR">    10</i>
   <i type="int" name="NBANDS">   304</i>
   <i name="NELECT">    444.00000000</i>
   <i type="int" name="TURBO">     0</i>
   <i type="int" name="IRESTART">     0</i>
   <i type="int" name="NREBOOT">     0</i>
   <i type="int" name="NMIN">     0</i>
   <i name="EREF">      0.00000000</i>
   <separator name="electronic smearing" >
    <i type="int" name="ISMEAR">     0</i>
    <i name="SIGMA">      0.01000000</i>
    <i name="KSPACING">      0.50000000</i>
    <i type="logical" name="KGAMMA"> T  </i>
   </separator>
   <separator name="electronic projectors" >
    <i type="logical" name="LREAL"> T  </i>
    <v name="ROPT">     -0.00040000     -0.00040000     -0.00040000</v>
    <i type="int" name="LMAXPAW">  -100</i>
    <i type="int" name="LMAXMIX">     2</i>
    <i type="logical" name="NLSPLINE"> F  </i>
   </separator>
   <separator name="electronic startup" >
    <i type="int" name="ISTART">     1</i>
    <i type="int" name="ICHARG">    11</i>
    <i type="int" name="INIWAV">     1</i>
   </separator>
   <separator name="electronic spin" >
    <i type="int" name="ISPIN">     1</i>
    <i type="logical" name="LNONCOLLINEAR"> F  </i>
    <v name="MAGMOM">      1.00000000      1.00000000      1.00000000      1.00000000      1.00000000      1.00000000      1.00000000      1.00000000      1.00000000      1.00000000      1.00000000      1.00000000      1.00000000      1.00000000      1.00000000      1.00000000      1.00000000      1.00000000      1.00000000      1.00000000
      1.00000000      1.00000000      1.00000000      1.00000000      1.00000000      1.00000000      1.00000000      1.00000000      1.00000000      1.00000000      1.00000000      1.00000000      1.00000000      1.00000000      1.00000000      1.00000000      1.00000000      1.00000000      1.00000000      1.00000000
      1.00000000      1.00000000      1.00000000      1.00000000      1.00000000      1.00000000      1.00000000      1.00000000      1.00000000      1.00000000      1.00000000      1.00000000      1.00000000      1.00000000      1.00000000      1.00000000      1.00000000      1.00000000      1.00000000      1.00000000
      1.00000000      1.00000000      1.00000000      1.00000000      1.00000000      1.00000000      1.00000000      1.00000000      1.00000000      1.00000000      1.00000000      1.00000000      1.00000000      1.00000000      1.00000000      1.00000000      1.00000000      1.00000000      1.00000000      1.00000000
      1.00000000      1.00000000      1.00000000      1.00000000      1.00000000      1.00000000      1.00000000      1.00000000      1.00000000      1.00000000      1.00000000      1.00000000      1.00000000      1.00000000      1.00000000      1.00000000      1.00000000      1.00000000      1.00000000      1.00000000
      1.00000000      1.00000000      1.00000000      1.00000000      1.00000000      1.00000000      1.00000000      1.00000000      1.00000000      1.00000000      1.00000000      1.00000000      1.00000000      1.00000000      1.00000000      1.00000000      1.00000000      1.00000000      1.00000000      1.00000000
      1.00000000      1.00000000      1.00000000      1.00000000      1.00000000      1.00000000      1.00000000      1.00000000      1.00000000      1.00000000      1.00000000      1.00000000      1.00000000      1.00000000      1.00000000      1.00000000      1.00000000      1.00000000      1.00000000      1.00000000
      1.00000000      1.00000000      1.00000000      1.00000000</v>
    <i name="NUPDOWN">     -1.00000000</i>
    <i type="logical" name="LSORBIT"> F  </i>
    <v name="SAXIS">      0.00000000      0.00000000      1.00000000</v>
    <i type="logical" name="LSPIRAL"> F  </i>
    <v name="QSPIRAL">      0.00000000      0.00000000      0.00000000</v>
    <i type="logical" name="LZEROZ"> F  </i>
   </separator>
   <separator name="electronic exchange-correlation" >
    <i type="logical" name="LASPH"> F  </i>
    <i type="logical" name="LMETAGGA"> F  </i>
   </separator>
   <separator name="electronic convergence" >
    <i type="int" name="NELM">   200</i>
    <i type="int" name="NELMDL">     0</i>
    <i type="int" name="NELMIN">     2</i>
    <i name="ENINI">    500.00000000</i>
    <separator name="electronic convergence detail" >
     <i type="logical" name="LDIAG"> T  </i>
     <i type="logical" name="LSUBROT"> F  </i>
     <i name="WEIMIN">      0.00000000</i>
     <i name="EBREAK">      0.00000001</i>
     <i name="DEPER">      0.30000000</i>
     <i type="int" name="NRMM">     4</i>
     <i name="TIME">      0.40000000</i>
    </separator>
   </separator>
   <separator name="electronic mixer" >
    <i name="AMIX">      0.40000000</i>
    <i name="BMIX">      1.00000000</i>
    <i name="AMIN">      0.10000000</i>
    <i name="AMIX_MAG">      1.60000000</i>
    <i name="BMIX_MAG">      1.00000000</i>
    <separator name="electronic mixer details" >
     <i type="int" name="IMIX">     4</i>
     <i type="logical" name="MIXFIRST"> F  </i>
     <i type="int" name="MAXMIX">   -45</i>
     <i name="WC">    100.00000000</i>
     <i type="int" name="INIMIX">     1</i>
     <i type="int" name="MIXPRE">     1</i>
     <i type="int" name="MREMOVE">     5</i>
    </separator>
   </separator>
   <separator name="electronic dipolcorrection" >
    <i type="logical" name="LDIPOL"> F  </i>
    <i type="logical" name="LMONO"> F  </i>
    <i type="int" name="IDIPOL">     0</i>
    <i name="EPSILON">      1.00000000</i>
    <v name="DIPOL">   -100.00000000   -100.00000000   -100.00000000</v>
    <i name="EFIELD">      0.00000000</i>
   </separator>
  </separator>
  <separator name="grids" >
   <i type="int" name="NGX">   250</i>
   <i type="int" name="NGY">   250</i>
   <i type="int" name="NGZ">   150</i>
   <i type="int" name="NGXF">   378</i>
   <i type="int" name="NGYF">   378</i>
   <i type="int" name="NGZF">   224</i>
   <i type="logical" name="ADDGRID"> F  </i>
  </separator>
  <separator name="ionic" >
   <i type="int" name="NSW">     0</i>
   <i type="int" name="IBRION">    -1</i>
   <i type="int" name="MDALGO">     0</i>
   <i type="int" name="ISIF">     2</i>
   <i name="PSTRESS">      0.00000000</i>
   <i name="EDIFFG">     -0.01000000</i>
   <i type="int" name="NFREE">     0</i>
   <i name="POTIM">      0.30000000</i>
   <i name="SMASS">     -3.00000000</i>
   <i name="SCALEE">      1.00000000</i>
  </separator>
  <separator name="ionic md" >
   <i name="TEBEG">      0.00010000</i>
   <i name="TEEND">      0.00010000</i>
   <i type="int" name="NBLOCK">     1</i>
   <i type="int" name="KBLOCK">     1</i>
   <i type="int" name="NPACO">   256</i>
   <i name="APACO">     16.00000000</i>
  </separator>
  <separator name="symmetry" >
   <i type="int" name="ISYM">     2</i>
   <i name="SYMPREC">      0.00001000</i>
  </separator>
  <separator name="dos" >
   <i type="int" name="LORBIT">     0</i>
   <v name="RWIGS">     -1.00000000     -1.00000000     -1.00000000</v>
   <i type="int" name="NEDOS">   301</i>
   <i name="EMIN">     10.00000000</i>
   <i name="EMAX">    -10.00000000</i>
   <i name="EFERMI">      0.00000000</i>
  </separator>
  <separator name="writing" >
   <i type="int" name="NWRITE">     0</i>
   <i type="logical" name="LWAVE"> F  </i>
   <i type="logical" name="LDOWNSAMPLE"> F  </i>
   <i type="logical" name="LCHARG"> F  </i>
   <i type="logical" name="LPARD"> F  </i>
   <i type="logical" name="LVTOT"> F  </i>
   <i type="logical" name="LVHAR"> F  </i>
   <i type="logical" name="LELF"> F  </i>
   <i type="logical" name="LOPTICS"> F  </i>
   <v name="STM">      0.00000000      0.00000000      0.00000000      0.00000000      0.00000000      0.00000000      0.00000000</v>
  </separator>
  <separator name="performance" >
   <i type="int" name="NPAR">    16</i>
   <i type="int" name="NSIM">     4</i>
   <i type="int" name="NBLK">    -1</i>
   <i type="logical" name="LPLANE"> T  </i>
   <i type="logical" name="LSCALAPACK"> T  </i>
   <i type="logical" name="LSCAAWARE"> F  </i>
   <i type="logical" name="LSCALU"> F  </i>
   <i type="logical" name="LASYNC"> F  </i>
   <i type="logical" name="LORBITALREAL"> F  </i>
  </separator>
  <separator name="miscellaneous" >
   <i type="int" name="IDIOT">     3</i>
   <i type="int" name="ISPECIAL">     0</i>
   <i type="logical" name="LMUSIC"> F  </i>
   <v name="POMASS">      1.00000000     14.00100000     12.01100000</v>
   <v name="DARWINR">      0.00000000      0.00000000      0.00000000</v>
   <v name="DARWINV">      1.00000000      1.00000000      1.00000000</v>
   <i type="logical" name="LCORR"> T  </i>
  </separator>
  <i type="logical" name="GGA_COMPAT"> T  </i>
  <i type="logical" name="LBERRY"> F  </i>
  <i type="int" name="ICORELEVEL">     0</i>
  <i type="logical" name="LDAU"> F  </i>
  <i type="int" name="I_CONSTRAINED_M">     0</i>
  <separator name="electronic exchange-correlation" >
   <i type="string" name="GGA">PE</i>
   <i type="int" name="VOSKOWN">     0</i>
   <i type="logical" name="LHFCALC"> F  </i>
   <i type="string" name="PRECFOCK"></i>
   <i type="logical" name="LSYMGRAD"> F  </i>
   <i type="logical" name="LHFONE"> F  </i>
   <i type="logical" name="LRHFCALC"> F  </i>
   <i type="logical" name="LTHOMAS"> F  </i>
   <i type="logical" name="LMODELHF"> F  </i>
   <i name="ENCUT4O">     -1.00000000</i>
   <i type="int" name="EXXOEP">     0</i>
   <i type="int" name="FOURORBIT">     0</i>
   <i name="AEXX">      0.00000000</i>
   <i name="HFALPHA">      0.00000000</i>
   <i name="MCALPHA">      0.00000000</i>
   <i name="ALDAX">      1.00000000</i>
   <i name="AGGAX">      1.00000000</i>
   <i name="ALDAC">      1.00000000</i>
   <i name="AGGAC">      1.00000000</i>
   <i type="int" name="NKREDX">     1</i>
   <i type="int" name="NKREDY">     1</i>
   <i type="int" name="NKREDZ">     1</i>
   <i type="logical" name="SHIFTRED"> F  </i>
   <i type="logical" name="ODDONLY"> F  </i>
   <i type="logical" name="EVENONLY"> F  </i>
   <i type="int" name="LMAXFOCK">     0</i>
   <i type="int" name="NMAXFOCKAE">     0</i>
   <i type="logical" name="LFOCKAEDFT"> F  </i>
   <i name="HFSCREEN">      0.00000000</i>
   <i name="HFSCREENC">      0.00000000</i>
   <i type="int" name="NBANDSGWLOW">     0</i>
  </separator>
  <separator name="vdW DFT" >
   <i type="logical" name="LUSE_VDW"> F  </i>
   <i name="Zab_VDW">     -0.84910000</i>
   <i name="PARAM1">      0.12340000</i>
   <i name="PARAM2">      1.00000000</i>
   <i name="PARAM3">      0.00000000</i>
  </separator>
  <separator name="model GW" >
   <i type="int" name="MODEL_GW">     0</i>
   <i name="MODEL_EPS0">     82.83111866</i>
   <i name="MODEL_ALPHA">      1.00000000</i>
  </separator>
  <separator name="linear response parameters" >
   <i type="logical" name="LEPSILON"> F  </i>
   <i type="logical" name="LRPA"> F  </i>
   <i type="logical" name="LNABLA"> F  </i>
   <i type="logical" name="LVEL"> F  </i>
   <i type="int" name="KINTER">     0</i>
   <i name="CSHIFT">      0.10000000</i>
   <i name="OMEGAMAX">     -1.00000000</i>
   <i name="DEG_THRESHOLD">      0.00200000</i>
   <i name="RTIME">     -0.10000000</i>
   <i name="WPLASMAI">      0.00000000</i>
   <v name="DFIELD">      0.00000000      0.00000000      0.00000000</v>
   <v name="WPLASMA">      0.00000000      0.00000000      0.00000000      0.00000000      0.00000000      0.00000000      0.00000000      0.00000000      0.00000000</v>
  </separator>
  <separator name="orbital magnetization" >
   <i type="logical" name="NUCIND"> F  </i>
   <v name="MAGPOS">      0.00000000      0.00000000      0.00000000</v>
   <i type="logical" name="LNICSALL"> T  </i>
   <i type="logical" name="ORBITALMAG"> F  </i>
   <i type="logical" name="LMAGBLOCH"> F  </i>
   <i type="logical" name="LCHIMAG"> F  </i>
   <i type="logical" name="LGAUGE"> T  </i>
   <i type="int" name="MAGATOM">     0</i>
   <v name="MAGDIPOL">      0.00000000      0.00000000      0.00000000</v>
   <v name="AVECCONST">      0.00000000      0.00000000      0.00000000</v>
  </separator>
  <separator name="response functions" >
   <i type="logical" name="LADDER"> F  </i>
   <i type="logical" name="LRPAFORCE"> F  </i>
   <i type="logical" name="LFXC"> F  </i>
   <i type="logical" name="LHARTREE"> T  </i>
   <i type="int" name="IBSE">     0</i>
   <v type="int" name="KPOINT">    -1     0     0     0</v>
   <i type="logical" name="LTCTE"> F  </i>
   <i type="logical" name="LTETE"> F  </i>
   <i type="logical" name="LTRIPLET"> F  </i>
   <i type="logical" name="LFXCEPS"> F  </i>
   <i type="logical" name="LFXHEG"> F  </i>
   <i type="int" name="NATURALO">     2</i>
   <i type="logical" name="L2ORDER"> F  </i>
   <i type="logical" name="LMP2LT"> F  </i>
   <i type="logical" name="LUSEW"> F  </i>
   <i name="ENCUTGW">     -2.00000000</i>
   <i name="ENCUTGWSOFT">     -2.00000000</i>
   <i name="ENCUTLF">     -1.00000000</i>
   <i type="int" name="LMAXMP2">    -1</i>
   <i name="SCISSOR">      0.00000000</i>
   <i type="int" name="NOMEGA">     0</i>
   <i type="int" name="NOMEGAR">     0</i>
   <i type="int" name="NBANDSGW">    -1</i>
   <i type="int" name="NBANDSO">    -1</i>
   <i type="int" name="NBANDSV">    -1</i>
   <i type="int" name="NELM">   200</i>
   <i type="int" name="NELMHF">     1</i>
   <i type="int" name="DIM">     3</i>
   <i type="int" name="ANTIRES">     0</i>
   <i name="OMEGAMAX">    -30.00000000</i>
   <i name="OMEGAMIN">    -30.00000000</i>
   <i name="OMEGATL">   -200.00000000</i>
   <i type="int" name="OMEGAGRID">   140</i>
   <i name="CSHIFT">     -0.10000000</i>
   <i type="logical" name="SELFENERGY"> F  </i>
   <i type="logical" name="LSPECTRAL"> F  </i>
   <i type="logical" name="LSPECTRALGW"> F  </i>
   <i type="logical" name="LSINGLES"> F  </i>
   <i type="logical" name="LFERMIGW"> F  </i>
   <i type="logical" name="ODDONLYGW"> F  </i>
   <i type="logical" name="EVENONLYGW"> F  </i>
   <i type="int" name="NKREDLFX">     1</i>
   <i type="int" name="NKREDLFY">     1</i>
   <i type="int" name="NKREDLFZ">     1</i>
   <i type="int" name="MAXMEM">  2800</i>
   <i type="int" name="TELESCOPE">     0</i>
   <i type="int" name="TAUPAR">     1</i>
   <i type="int" name="OMEGAPAR">    -1</i>
   <i name="LAMBDA">      1.00000000</i>
  </separator>
  <separator name="External order field" >
   <i name="OFIELD_KAPPA">      0.00000000</i>
   <v name="OFIELD_K">      0.00000000      0.00000000      0.00000000</v>
   <i name="OFIELD_Q6_NEAR">      0.00000000</i>
   <i name="OFIELD_Q6_FAR">      0.00000000</i>
   <i name="OFIELD_A">      0.00000000</i>
  </separator>
  <separator name="solvation model" >
   <i type="logical" name="LSOL"> F  </i>
  </separator>
 </parameters>
 <atominfo>
  <atoms>     144 </atoms>
  <types>       3 </types>
  <array name="atoms" >
   <dimension dim="1">ion</dimension>
   <field type="string">element</field>
   <field type="int">atomtype</field>
   <set>
    <rc><c>H </c><c>   1</c></rc>
    <rc><c>H </c><c>   1</c></rc>
    <rc><c>H </c><c>   1</c></rc>
    <rc><c>H </c><c>   1</c></rc>
    <rc><c>H </c><c>   1</c></rc>
    <rc><c>H </c><c>   1</c></rc>
    <rc><c>H </c><c>   1</c></rc>
    <rc><c>H </c><c>   1</c></rc>
    <rc><c>H </c><c>   1</c></rc>
    <rc><c>H </c><c>   1</c></rc>
    <rc><c>H </c><c>   1</c></rc>
    <rc><c>H </c><c>   1</c></rc>
    <rc><c>H </c><c>   1</c></rc>
    <rc><c>H </c><c>   1</c></rc>
    <rc><c>H </c><c>   1</c></rc>
    <rc><c>H </c><c>   1</c></rc>
    <rc><c>H </c><c>   1</c></rc>
    <rc><c>H </c><c>   1</c></rc>
    <rc><c>H </c><c>   1</c></rc>
    <rc><c>H </c><c>   1</c></rc>
    <rc><c>H </c><c>   1</c></rc>
    <rc><c>H </c><c>   1</c></rc>
    <rc><c>H </c><c>   1</c></rc>
    <rc><c>H </c><c>   1</c></rc>
    <rc><c>H </c><c>   1</c></rc>
    <rc><c>H </c><c>   1</c></rc>
    <rc><c>H </c><c>   1</c></rc>
    <rc><c>H </c><c>   1</c></rc>
    <rc><c>H </c><c>   1</c></rc>
    <rc><c>H </c><c>   1</c></rc>
    <rc><c>H </c><c>   1</c></rc>
    <rc><c>H </c><c>   1</c></rc>
    <rc><c>H </c><c>   1</c></rc>
    <rc><c>H </c><c>   1</c></rc>
    <rc><c>H </c><c>   1</c></rc>
    <rc><c>H </c><c>   1</c></rc>
    <rc><c>H </c><c>   1</c></rc>
    <rc><c>H </c><c>   1</c></rc>
    <rc><c>H </c><c>   1</c></rc>
    <rc><c>H </c><c>   1</c></rc>
    <rc><c>H </c><c>   1</c></rc>
    <rc><c>H </c><c>   1</c></rc>
    <rc><c>H </c><c>   1</c></rc>
    <rc><c>H </c><c>   1</c></rc>
    <rc><c>H </c><c>   1</c></rc>
    <rc><c>H </c><c>   1</c></rc>
    <rc><c>H </c><c>   1</c></rc>
    <rc><c>H </c><c>   1</c></rc>
    <rc><c>N </c><c>   2</c></rc>
    <rc><c>N </c><c>   2</c></rc>
    <rc><c>N </c><c>   2</c></rc>
    <rc><c>N </c><c>   2</c></rc>
    <rc><c>N </c><c>   2</c></rc>
    <rc><c>N </c><c>   2</c></rc>
    <rc><c>N </c><c>   2</c></rc>
    <rc><c>N </c><c>   2</c></rc>
    <rc><c>N </c><c>   2</c></rc>
    <rc><c>N </c><c>   2</c></rc>
    <rc><c>N </c><c>   2</c></rc>
    <rc><c>N </c><c>   2</c></rc>
    <rc><c>C </c><c>   3</c></rc>
    <rc><c>C </c><c>   3</c></rc>
    <rc><c>C </c><c>   3</c></rc>
    <rc><c>C </c><c>   3</c></rc>
    <rc><c>C </c><c>   3</c></rc>
    <rc><c>C </c><c>   3</c></rc>
    <rc><c>C </c><c>   3</c></rc>
    <rc><c>C </c><c>   3</c></rc>
    <rc><c>C </c><c>   3</c></rc>
    <rc><c>C </c><c>   3</c></rc>
    <rc><c>C </c><c>   3</c></rc>
    <rc><c>C </c><c>   3</c></rc>
    <rc><c>C </c><c>   3</c></rc>
    <rc><c>C </c><c>   3</c></rc>
    <rc><c>C </c><c>   3</c></rc>
    <rc><c>C </c><c>   3</c></rc>
    <rc><c>C </c><c>   3</c></rc>
    <rc><c>C </c><c>   3</c></rc>
    <rc><c>C </c><c>   3</c></rc>
    <rc><c>C </c><c>   3</c></rc>
    <rc><c>C </c><c>   3</c></rc>
    <rc><c>C </c><c>   3</c></rc>
    <rc><c>C </c><c>   3</c></rc>
    <rc><c>C </c><c>   3</c></rc>
    <rc><c>C </c><c>   3</c></rc>
    <rc><c>C </c><c>   3</c></rc>
    <rc><c>C </c><c>   3</c></rc>
    <rc><c>C </c><c>   3</c></rc>
    <rc><c>C </c><c>   3</c></rc>
    <rc><c>C </c><c>   3</c></rc>
    <rc><c>C </c><c>   3</c></rc>
    <rc><c>C </c><c>   3</c></rc>
    <rc><c>C </c><c>   3</c></rc>
    <rc><c>C </c><c>   3</c></rc>
    <rc><c>C </c><c>   3</c></rc>
    <rc><c>C </c><c>   3</c></rc>
    <rc><c>C </c><c>   3</c></rc>
    <rc><c>C </c><c>   3</c></rc>
    <rc><c>C </c><c>   3</c></rc>
    <rc><c>C </c><c>   3</c></rc>
    <rc><c>C </c><c>   3</c></rc>
    <rc><c>C </c><c>   3</c></rc>
    <rc><c>C </c><c>   3</c></rc>
    <rc><c>C </c><c>   3</c></rc>
    <rc><c>C </c><c>   3</c></rc>
    <rc><c>C </c><c>   3</c></rc>
    <rc><c>C </c><c>   3</c></rc>
    <rc><c>C </c><c>   3</c></rc>
    <rc><c>C </c><c>   3</c></rc>
    <rc><c>C </c><c>   3</c></rc>
    <rc><c>C </c><c>   3</c></rc>
    <rc><c>C </c><c>   3</c></rc>
    <rc><c>C </c><c>   3</c></rc>
    <rc><c>C </c><c>   3</c></rc>
    <rc><c>C </c><c>   3</c></rc>
    <rc><c>C </c><c>   3</c></rc>
    <rc><c>C </c><c>   3</c></rc>
    <rc><c>C </c><c>   3</c></rc>
    <rc><c>C </c><c>   3</c></rc>
    <rc><c>C </c><c>   3</c></rc>
    <rc><c>C </c><c>   3</c></rc>
    <rc><c>C </c><c>   3</c></rc>
    <rc><c>C </c><c>   3</c></rc>
    <rc><c>C </c><c>   3</c></rc>
    <rc><c>C </c><c>   3</c></rc>
    <rc><c>C </c><c>   3</c></rc>
    <rc><c>C </c><c>   3</c></rc>
    <rc><c>C </c><c>   3</c></rc>
    <rc><c>C </c><c>   3</c></rc>
    <rc><c>C </c><c>   3</c></rc>
    <rc><c>C </c><c>   3</c></rc>
    <rc><c>C </c><c>   3</c></rc>
    <rc><c>C </c><c>   3</c></rc>
    <rc><c>C </c><c>   3</c></rc>
    <rc><c>C </c><c>   3</c></rc>
    <rc><c>C </c><c>   3</c></rc>
    <rc><c>C </c><c>   3</c></rc>
    <rc><c>C </c><c>   3</c></rc>
    <rc><c>C </c><c>   3</c></rc>
    <rc><c>C </c><c>   3</c></rc>
    <rc><c>C </c><c>   3</c></rc>
    <rc><c>C </c><c>   3</c></rc>
    <rc><c>C </c><c>   3</c></rc>
    <rc><c>C </c><c>   3</c></rc>
   </set>
  </array>
  <array name="atomtypes" >
   <dimension dim="1">type</dimension>
   <field type="int">atomspertype</field>
   <field type="string">element</field>
   <field>mass</field>
   <field>valence</field>
   <field type="string">pseudopotential</field>
   <set>
    <rc><c>  48</c><c>H </c><c>      1.00000000</c><c>      1.00000000</c><c>  PAW_PBE H 15Jun2001                   </c></rc>
    <rc><c>  12</c><c>N </c><c>     14.00100000</c><c>      5.00000000</c><c>  PAW_PBE N 08Apr2002                   </c></rc>
    <rc><c>  84</c><c>C </c><c>     12.01100000</c><c>      4.00000000</c><c>  PAW_PBE C 08Apr2002                   </c></rc>
   </set>
  </array>
 </atominfo>
 <structure name="initialpos" >
  <crystal>
   <varray name="basis" >
    <v>      33.88669943       0.01257998       0.00000000 </v>
    <v>     -16.92773453      29.32597421       0.00000000 </v>
    <v>       0.00000000       0.00000000      20.00000000 </v>
   </varray>
   <i name="volume">  19879.46847847 </i>
   <varray name="rec_basis" >
    <v>       0.02950378       0.01703037       0.00000000 </v>
    <v>      -0.00001266       0.03409216       0.00000000 </v>
    <v>       0.00000000       0.00000000       0.05000000 </v>
   </varray>
  </crystal>
  <varray name="positions" >
   <v>       0.15695126       0.96017001       0.54649359 </v>
   <v>       0.11476107       0.00246786       0.54337431 </v>
   <v>       0.10865564       0.76365160       0.54311154 </v>
   <v>       0.06644652       0.80594258       0.54489768 </v>
   <v>       0.81880683       0.83758276       0.54616300 </v>
   <v>       0.90322202       0.87994595       0.54296083 </v>
   <v>       0.67057571       0.88596840       0.54337471 </v>
   <v>       0.75498821       0.92810251       0.54572813 </v>
   <v>       0.03511067       0.17667024       0.54712512 </v>
   <v>       0.99265053       0.09215366       0.54442325 </v>
   <v>       0.23140907       0.32448543       0.54121038 </v>
   <v>       0.18906576       0.23998526       0.54363287 </v>
   <v>       0.41304976       0.88647463       0.59264128 </v>
   <v>       0.33188500       0.86721701       0.58704302 </v>
   <v>       0.48200214       0.77558786       0.60657892 </v>
   <v>       0.42307891       0.79869638       0.60595581 </v>
   <v>       0.48985123       0.58147764       0.59173428 </v>
   <v>       0.55147653       0.66279326       0.58598769 </v>
   <v>       0.30959192       0.51397618       0.60449633 </v>
   <v>       0.39174856       0.57240169       0.60414299 </v>
   <v>       0.10762594       0.50496379       0.59180354 </v>
   <v>       0.12756237       0.44346458       0.58543750 </v>
   <v>       0.21951610       0.68514134       0.60568016 </v>
   <v>       0.19586789       0.60292639       0.60485532 </v>
   <v>       0.18921382       0.92868921       0.48733326 </v>
   <v>       0.23154458       0.88652503       0.49024527 </v>
   <v>       0.99280510       0.88008213       0.48611248 </v>
   <v>       0.03523154       0.83800591       0.48431095 </v>
   <v>       0.75500616       0.80536386       0.48751671 </v>
   <v>       0.67059541       0.76307195       0.48986377 </v>
   <v>       0.90252865       0.00214294       0.48745075 </v>
   <v>       0.81809817       0.95958933       0.48571745 </v>
   <v>       0.06624700       0.24015706       0.48705026 </v>
   <v>       0.10846575       0.32465415       0.48920408 </v>
   <v>       0.11441549       0.09194668       0.48542822 </v>
   <v>       0.15666567       0.17646697       0.48324587 </v>
   <v>       0.48840271       0.88543107       0.43625241 </v>
   <v>       0.55048013       0.86642555       0.44215558 </v>
   <v>       0.30901674       0.77442874       0.42513781 </v>
   <v>       0.39102640       0.79757860       0.42550132 </v>
   <v>       0.41319323       0.50496146       0.43718305 </v>
   <v>       0.33189078       0.44347803       0.44282328 </v>
   <v>       0.48095346       0.68541172       0.42474662 </v>
   <v>       0.42242103       0.60324470       0.42514930 </v>
   <v>       0.10769168       0.58194123       0.43725991 </v>
   <v>       0.12730773       0.66327119       0.44343447 </v>
   <v>       0.22011538       0.51443785       0.42387824 </v>
   <v>       0.19622729       0.57283883       0.42487175 </v>
   <v>       0.97987042       0.01491257       0.51493934 </v>
   <v>       0.98001414       0.94459818       0.51461210 </v>
   <v>       0.05022098       0.01497731       0.51494667 </v>
   <v>       0.17310763       0.75109580       0.51702400 </v>
   <v>       0.24397174       0.82180742       0.51600034 </v>
   <v>       0.24331058       0.75120362       0.51463603 </v>
   <v>       0.59367434       0.82166194       0.51662110 </v>
   <v>       0.59348898       0.75069784       0.51497084 </v>
   <v>       0.52360524       0.75131146       0.51446766 </v>
   <v>       0.24394937       0.40158242       0.51558348 </v>
   <v>       0.17326151       0.40176841       0.51392754 </v>
   <v>       0.24376680       0.47174365       0.51340788 </v>
   <v>       0.02568466       0.03627960       0.51491411 </v>
   <v>       0.95862066       0.96905856       0.51485818 </v>
   <v>       0.02581719       0.96913015       0.51475397 </v>
   <v>       0.19758479       0.72995882       0.51838518 </v>
   <v>       0.19791984       0.79716599       0.51663600 </v>
   <v>       0.26480020       0.79703919       0.51259952 </v>
   <v>       0.54806672       0.79708244       0.51810912 </v>
   <v>       0.61488488       0.79677718       0.51600405 </v>
   <v>       0.54793280       0.72981339       0.51195001 </v>
   <v>       0.26501607       0.44721143       0.51710571 </v>
   <v>       0.19790488       0.38033047       0.51488410 </v>
   <v>       0.19796406       0.44736743       0.51098171 </v>
   <v>       0.17281599       0.82237004       0.51670575 </v>
   <v>       0.12597439       0.79989185       0.53120404 </v>
   <v>       0.10243880       0.82372882       0.53134484 </v>
   <v>       0.12453938       0.87060902       0.51602962 </v>
   <v>       0.12118582       0.94251473       0.53170830 </v>
   <v>       0.09763130       0.96633482       0.53081041 </v>
   <v>       0.66514173       0.82182386       0.51645623 </v>
   <v>       0.68947523       0.86863505       0.53141346 </v>
   <v>       0.73680130       0.89213405       0.53189347 </v>
   <v>       0.76157350       0.87004896       0.51645686 </v>
   <v>       0.83682968       0.87343618       0.53170430 </v>
   <v>       0.88416064       0.89707505       0.53074590 </v>
   <v>       0.17268157       0.33002014       0.51516359 </v>
   <v>       0.19514696       0.30560136       0.52963323 </v>
   <v>       0.17128070       0.25823043       0.53014430 </v>
   <v>       0.12437167       0.23349279       0.51527822 </v>
   <v>       0.05257992       0.15841108       0.53200823 </v>
   <v>       0.02867698       0.11103319       0.53133314 </v>
   <v>       0.39064918       0.86309300       0.55429436 </v>
   <v>       0.34500419       0.85213330       0.55150785 </v>
   <v>       0.45102897       0.84271969       0.51996226 </v>
   <v>       0.51964950       0.81898422       0.52377073 </v>
   <v>       0.48433922       0.80110999       0.57107189 </v>
   <v>       0.45126024       0.81388532       0.57041672 </v>
   <v>       0.48871067       0.60382649       0.55340414 </v>
   <v>       0.52321470       0.64957950       0.55059036 </v>
   <v>       0.40783707       0.54339352       0.51946962 </v>
   <v>       0.31529065       0.47542565       0.52291452 </v>
   <v>       0.33276939       0.51112861       0.56961193 </v>
   <v>       0.37869125       0.54389333       0.56914091 </v>
   <v>       0.13104581       0.50622168       0.55329870 </v>
   <v>       0.14243432       0.47181316       0.55014170 </v>
   <v>       0.15112737       0.58709226       0.51982327 </v>
   <v>       0.17551490       0.67963197       0.52390936 </v>
   <v>       0.19360490       0.66202102       0.57060920 </v>
   <v>       0.18051910       0.61608026       0.56984148 </v>
   <v>       0.17143917       0.89271045       0.50111916 </v>
   <v>       0.19529715       0.86920449       0.50192483 </v>
   <v>       0.09936033       0.89578080       0.51555558 </v>
   <v>       0.05103581       0.94398455       0.51484307 </v>
   <v>       0.02885270       0.89732562       0.49907237 </v>
   <v>       0.05273883       0.87383554       0.49888352 </v>
   <v>       0.73681309       0.82315058       0.50128767 </v>
   <v>       0.68948204       0.79931390       0.50176129 </v>
   <v>       0.81187447       0.89528816       0.51603443 </v>
   <v>       0.90830325       0.94377341       0.51517212 </v>
   <v>       0.88378411       0.96599635       0.49998670 </v>
   <v>       0.83645048       0.94202958       0.49985115 </v>
   <v>       0.10226414       0.25833611       0.50045008 </v>
   <v>       0.12580583       0.30570738       0.50084694 </v>
   <v>       0.09917165       0.18314223       0.51518419 </v>
   <v>       0.05083413       0.08663556       0.51494286 </v>
   <v>       0.09737168       0.11092993       0.49863164 </v>
   <v>       0.12093670       0.15830442       0.49821557 </v>
   <v>       0.31503229       0.81879309       0.50673132 </v>
   <v>       0.33231636       0.80036735       0.46002404 </v>
   <v>       0.37814663       0.81317110       0.46054455 </v>
   <v>       0.40737897       0.84262852       0.51030394 </v>
   <v>       0.48782688       0.86262401       0.47528242 </v>
   <v>       0.52258782       0.85175075       0.47819654 </v>
   <v>       0.51957773       0.67952833       0.50602884 </v>
   <v>       0.48380904       0.66214461       0.45947467 </v>
   <v>       0.45097315       0.61622476       0.46001264 </v>
   <v>       0.45144609       0.58698727       0.50959650 </v>
   <v>       0.39090581       0.50615526       0.47554457 </v>
   <v>       0.34514360       0.47172415       0.47829465 </v>
   <v>       0.17594744       0.47564705       0.50532785 </v>
   <v>       0.19408142       0.51147782       0.45883424 </v>
   <v>       0.18085044       0.54421978       0.45968744 </v>
   <v>       0.15124647       0.54356321       0.50956713 </v>
   <v>       0.13095249       0.60414391       0.47587702 </v>
   <v>       0.14217478       0.64990315       0.47893588 </v>
  </varray>
 </structure>
 <calculation>
  <scstep>
   <time name="dav">  574.87  580.51</time>
   <time name="total">  575.21  580.87</time>
   <energy>
    <i name="alphaZ">     46.91622913 </i>
    <i name="ewald">  57274.46035170 </i>
    <i name="hartreedc"> -70432.27079871 </i>
    <i name="XCdc">   1524.45773679 </i>
    <i name="pawpsdc">  41255.61714528 </i>
    <i name="pawaedc"> -41330.85334901 </i>
    <i name="eentropy">     -0.00000000 </i>
    <i name="bandstr">  -5502.43811398 </i>
    <i name="atom">  16134.23424816 </i>
    <i name="e_fr_energy">  -1029.87655064 </i>
    <i name="e_wo_entrp">  -1029.87655064 </i>
    <i name="e_0_energy">  -1029.87655064 </i>
   </energy>
  </scstep>
  <scstep>
   <time name="dav">  608.20  616.19</time>
   <time name="total">  608.22  616.20</time>
   <energy>
    <i name="e_fr_energy">  -1030.29649070 </i>
    <i name="e_wo_entrp">  -1030.29649070 </i>
    <i name="e_0_energy">  -1030.29649070 </i>
   </energy>
  </scstep>
  <scstep>
   <time name="dav">  720.68  735.61</time>
   <time name="total">  720.69  735.62</time>
   <energy>
    <i name="e_fr_energy">  -1030.31167853 </i>
    <i name="e_wo_entrp">  -1030.31167853 </i>
    <i name="e_0_energy">  -1030.31167853 </i>
   </energy>
  </scstep>
  <scstep>
   <time name="dav">  608.17  620.78</time>
   <time name="total">  608.18  620.79</time>
   <energy>
    <i name="e_fr_energy">  -1030.31181374 </i>
    <i name="e_wo_entrp">  -1030.31181374 </i>
    <i name="e_0_energy">  -1030.31181374 </i>
   </energy>
  </scstep>
  <scstep>
   <time name="dav">  587.86  600.09</time>
   <time name="total">  587.90  600.13</time>
   <energy>
    <i name="alphaZ">     46.91622913 </i>
    <i name="ewald">  57274.46035170 </i>
    <i name="hartreedc"> -70432.27079871 </i>
    <i name="XCdc">   1524.45773679 </i>
    <i name="pawpsdc">  41255.61714528 </i>
    <i name="pawaedc"> -41330.85334901 </i>
    <i name="eentropy">     -0.00000000 </i>
    <i name="bandstr">  -5502.87338410 </i>
    <i name="atom">  16134.23424816 </i>
    <i name="e_fr_energy">  -1030.31182076 </i>
    <i name="e_wo_entrp">  -1030.31182076 </i>
    <i name="e_0_energy">  -1030.31182076 </i>
   </energy>
  </scstep>
  <structure>
   <crystal>
    <varray name="basis" >
     <v>      33.88669943       0.01257998       0.00000000 </v>
     <v>     -16.92773453      29.32597421       0.00000000 </v>
     <v>       0.00000000       0.00000000      20.00000000 </v>
    </varray>
    <i name="volume">  19879.46847847 </i>
    <varray name="rec_basis" >
     <v>       0.02950378       0.01703037       0.00000000 </v>
     <v>      -0.00001266       0.03409216       0.00000000 </v>
     <v>       0.00000000       0.00000000       0.05000000 </v>
    </varray>
   </crystal>
   <varray name="positions" >
    <v>       0.15695126       0.96017001       0.54649359 </v>
    <v>       0.11476107       0.00246786       0.54337431 </v>
    <v>       0.10865564       0.76365160       0.54311154 </v>
    <v>       0.06644652       0.80594258       0.54489768 </v>
    <v>       0.81880683       0.83758276       0.54616300 </v>
    <v>       0.90322202       0.87994595       0.54296083 </v>
    <v>       0.67057571       0.88596840       0.54337471 </v>
    <v>       0.75498821       0.92810251       0.54572813 </v>
    <v>       0.03511067       0.17667024       0.54712512 </v>
    <v>       0.99265053       0.09215366       0.54442325 </v>
    <v>       0.23140907       0.32448543       0.54121038 </v>
    <v>       0.18906576       0.23998526       0.54363287 </v>
    <v>       0.41304976       0.88647463       0.59264128 </v>
    <v>       0.33188500       0.86721701       0.58704302 </v>
    <v>       0.48200214       0.77558786       0.60657892 </v>
    <v>       0.42307891       0.79869638       0.60595581 </v>
    <v>       0.48985123       0.58147764       0.59173428 </v>
    <v>       0.55147653       0.66279326       0.58598769 </v>
    <v>       0.30959192       0.51397618       0.60449633 </v>
    <v>       0.39174856       0.57240169       0.60414299 </v>
    <v>       0.10762594       0.50496379       0.59180354 </v>
    <v>       0.12756237       0.44346458       0.58543750 </v>
    <v>       0.21951610       0.68514134       0.60568016 </v>
    <v>       0.19586789       0.60292639       0.60485532 </v>
    <v>       0.18921382       0.92868921       0.48733326 </v>
    <v>       0.23154458       0.88652503       0.49024527 </v>
    <v>       0.99280510       0.88008213       0.48611248 </v>
    <v>       0.03523154       0.83800591       0.48431095 </v>
    <v>       0.75500616       0.80536386       0.48751671 </v>
    <v>       0.67059541       0.76307195       0.48986377 </v>
    <v>       0.90252865       0.00214294       0.48745075 </v>
    <v>       0.81809817       0.95958933       0.48571745 </v>
    <v>       0.06624700       0.24015706       0.48705026 </v>
    <v>       0.10846575       0.32465415       0.48920408 </v>
    <v>       0.11441549       0.09194668       0.48542822 </v>
    <v>       0.15666567       0.17646697       0.48324587 </v>
    <v>       0.48840271       0.88543107       0.43625241 </v>
    <v>       0.55048013       0.86642555       0.44215558 </v>
    <v>       0.30901674       0.77442874       0.42513781 </v>
    <v>       0.39102640       0.79757860       0.42550132 </v>
    <v>       0.41319323       0.50496146       0.43718305 </v>
    <v>       0.33189078       0.44347803       0.44282328 </v>
    <v>       0.48095346       0.68541172       0.42474662 </v>
    <v>       0.42242103       0.60324470       0.42514930 </v>
    <v>       0.10769168       0.58194123       0.43725991 </v>
    <v>       0.12730773       0.66327119       0.44343447 </v>
    <v>       0.22011538       0.51443785       0.42387824 </v>
    <v>       0.19622729       0.57283883       0.42487175 </v>
    <v>       0.97987042       0.01491257       0.51493934 </v>
    <v>       0.98001414       0.94459818       0.51461210 </v>
    <v>       0.05022098       0.01497731       0.51494667 </v>
    <v>       0.17310763       0.75109580       0.51702400 </v>
    <v>       0.24397174       0.82180742       0.51600034 </v>
    <v>       0.24331058       0.75120362       0.51463603 </v>
    <v>       0.59367434       0.82166194       0.51662110 </v>
    <v>       0.59348898       0.75069784       0.51497084 </v>
    <v>       0.52360524       0.75131146       0.51446766 </v>
    <v>       0.24394937       0.40158242       0.51558348 </v>
    <v>       0.17326151       0.40176841       0.51392754 </v>
    <v>       0.24376680       0.47174365       0.51340788 </v>
    <v>       0.02568466       0.03627960       0.51491411 </v>
    <v>       0.95862066       0.96905856       0.51485818 </v>
    <v>       0.02581719       0.96913015       0.51475397 </v>
    <v>       0.19758479       0.72995882       0.51838518 </v>
    <v>       0.19791984       0.79716599       0.51663600 </v>
    <v>       0.26480020       0.79703919       0.51259952 </v>
    <v>       0.54806672       0.79708244       0.51810912 </v>
    <v>       0.61488488       0.79677718       0.51600405 </v>
    <v>       0.54793280       0.72981339       0.51195001 </v>
    <v>       0.26501607       0.44721143       0.51710571 </v>
    <v>       0.19790488       0.38033047       0.51488410 </v>
    <v>       0.19796406       0.44736743       0.51098171 </v>
    <v>       0.17281599       0.82237004       0.51670575 </v>
    <v>       0.12597439       0.79989185       0.53120404 </v>
    <v>       0.10243880       0.82372882       0.53134484 </v>
    <v>       0.12453938       0.87060902       0.51602962 </v>
    <v>       0.12118582       0.94251473       0.53170830 </v>
    <v>       0.09763130       0.96633482       0.53081041 </v>
    <v>       0.66514173       0.82182386       0.51645623 </v>
    <v>       0.68947523       0.86863505       0.53141346 </v>
    <v>       0.73680130       0.89213405       0.53189347 </v>
    <v>       0.76157350       0.87004896       0.51645686 </v>
    <v>       0.83682968       0.87343618       0.53170430 </v>
    <v>       0.88416064       0.89707505       0.53074590 </v>
    <v>       0.17268157       0.33002014       0.51516359 </v>
    <v>       0.19514696       0.30560136       0.52963323 </v>
    <v>       0.17128070       0.25823043       0.53014430 </v>
    <v>       0.12437167       0.23349279       0.51527822 </v>
    <v>       0.05257992       0.15841108       0.53200823 </v>
    <v>       0.02867698       0.11103319       0.53133314 </v>
    <v>       0.39064918       0.86309300       0.55429436 </v>
    <v>       0.34500419       0.85213330       0.55150785 </v>
    <v>       0.45102897       0.84271969       0.51996226 </v>
    <v>       0.51964950       0.81898422       0.52377073 </v>
    <v>       0.48433922       0.80110999       0.57107189 </v>
    <v>       0.45126024       0.81388532       0.57041672 </v>
    <v>       0.48871067       0.60382649       0.55340414 </v>
    <v>       0.52321470       0.64957950       0.55059036 </v>
    <v>       0.40783707       0.54339352       0.51946962 </v>
    <v>       0.31529065       0.47542565       0.52291452 </v>
    <v>       0.33276939       0.51112861       0.56961193 </v>
    <v>       0.37869125       0.54389333       0.56914091 </v>
    <v>       0.13104581       0.50622168       0.55329870 </v>
    <v>       0.14243432       0.47181316       0.55014170 </v>
    <v>       0.15112737       0.58709226       0.51982327 </v>
    <v>       0.17551490       0.67963197       0.52390936 </v>
    <v>       0.19360490       0.66202102       0.57060920 </v>
    <v>       0.18051910       0.61608026       0.56984148 </v>
    <v>       0.17143917       0.89271045       0.50111916 </v>
    <v>       0.19529715       0.86920449       0.50192483 </v>
    <v>       0.09936033       0.89578080       0.51555558 </v>
    <v>       0.05103581       0.94398455       0.51484307 </v>
    <v>       0.02885270       0.89732562       0.49907237 </v>
    <v>       0.05273883       0.87383554       0.49888352 </v>
    <v>       0.73681309       0.82315058       0.50128767 </v>
    <v>       0.68948204       0.79931390       0.50176129 </v>
    <v>       0.81187447       0.89528816       0.51603443 </v>
    <v>       0.90830325       0.94377341       0.51517212 </v>
    <v>       0.88378411       0.96599635       0.49998670 </v>
    <v>       0.83645048       0.94202958       0.49985115 </v>
    <v>       0.10226414       0.25833611       0.50045008 </v>
    <v>       0.12580583       0.30570738       0.50084694 </v>
    <v>       0.09917165       0.18314223       0.51518419 </v>
    <v>       0.05083413       0.08663556       0.51494286 </v>
    <v>       0.09737168       0.11092993       0.49863164 </v>
    <v>       0.12093670       0.15830442       0.49821557 </v>
    <v>       0.31503229       0.81879309       0.50673132 </v>
    <v>       0.33231636       0.80036735       0.46002404 </v>
    <v>       0.37814663       0.81317110       0.46054455 </v>
    <v>       0.40737897       0.84262852       0.51030394 </v>
    <v>       0.48782688       0.86262401       0.47528242 </v>
    <v>       0.52258782       0.85175075       0.47819654 </v>
    <v>       0.51957773       0.67952833       0.50602884 </v>
    <v>       0.48380904       0.66214461       0.45947467 </v>
    <v>       0.45097315       0.61622476       0.46001264 </v>
    <v>       0.45144609       0.58698727       0.50959650 </v>
    <v>       0.39090581       0.50615526       0.47554457 </v>
    <v>       0.34514360       0.47172415       0.47829465 </v>
    <v>       0.17594744       0.47564705       0.50532785 </v>
    <v>       0.19408142       0.51147782       0.45883424 </v>
    <v>       0.18085044       0.54421978       0.45968744 </v>
    <v>       0.15124647       0.54356321       0.50956713 </v>
    <v>       0.13095249       0.60414391       0.47587702 </v>
    <v>       0.14217478       0.64990315       0.47893588 </v>
   </varray>
  </structure>
  <varray name="forces" >
   <v>      -0.00139191       0.00025125       0.00053482 </v>
   <v>      -0.00261993       0.00148048       0.00228186 </v>
   <v>      -0.00116537      -0.00292431      -0.00099549 </v>
   <v>       0.00194983       0.00264542      -0.00103890 </v>
   <v>      -0.00103954      -0.00150805      -0.00011957 </v>
   <v>       0.00081137       0.00013960       0.00011177 </v>
   <v>      -0.00282458      -0.00199796      -0.00302945 </v>
   <v>      -0.00081990      -0.00279537      -0.00110412 </v>
   <v>       0.00193289      -0.00306628      -0.00084113 </v>
   <v>       0.00093450      -0.00176148      -0.00081013 </v>
   <v>       0.00227014       0.00135082       0.00083038 </v>
   <v>      -0.00307869      -0.00044855      -0.00216346 </v>
   <v>       0.00087713       0.00045207       0.00310479 </v>
   <v>      -0.00150585       0.00179822      -0.00304563 </v>
   <v>      -0.00144657      -0.00030980      -0.00089943 </v>
   <v>      -0.00127859       0.00019679      -0.00463059 </v>
   <v>       0.00069886      -0.00079803      -0.00251449 </v>
   <v>       0.00429250       0.00099947      -0.00232540 </v>
   <v>      -0.00459811       0.00294628      -0.00045112 </v>
   <v>       0.00013296      -0.00006189      -0.00373128 </v>
   <v>      -0.00009579      -0.00302989      -0.00157417 </v>
   <v>      -0.00175955      -0.00405595      -0.00373061 </v>
   <v>       0.00132934      -0.00425846      -0.00095537 </v>
   <v>       0.00267581      -0.00162533      -0.00626427 </v>
   <v>       0.00196070      -0.00287927       0.00094015 </v>
   <v>       0.00335876       0.00051121      -0.00050135 </v>
   <v>      -0.00204951       0.00132599       0.00307787 </v>
   <v>      -0.00275731       0.00046534       0.00007736 </v>
   <v>      -0.00268006       0.00018463      -0.00036936 </v>
   <v>      -0.00335412      -0.00061331      -0.00089376 </v>
   <v>       0.00251383      -0.00055914       0.00070217 </v>
   <v>       0.00306090      -0.00190922      -0.00116173 </v>
   <v>       0.00094775       0.00121069      -0.00042000 </v>
   <v>       0.00345053      -0.00002763       0.00236583 </v>
   <v>       0.00336316       0.00068715       0.00195217 </v>
   <v>      -0.00275782       0.00079320      -0.00130651 </v>
   <v>       0.00042142       0.00096534       0.00432172 </v>
   <v>       0.00147346       0.00153687       0.00267430 </v>
   <v>       0.00127488      -0.00036673       0.00235001 </v>
   <v>       0.00343259      -0.00059995       0.00290055 </v>
   <v>      -0.00177562       0.00048557       0.00398756 </v>
   <v>      -0.00120704      -0.00266230       0.00264335 </v>
   <v>      -0.00126779      -0.00166699       0.00091954 </v>
   <v>      -0.00205561      -0.00195611       0.00104668 </v>
   <v>      -0.00282092       0.00182859       0.00021238 </v>
   <v>      -0.00036088       0.00132507       0.00542552 </v>
   <v>      -0.00018700       0.00240961       0.00046541 </v>
   <v>      -0.00021513      -0.00072430       0.00301322 </v>
   <v>      -0.00302514       0.00179403      -0.00209860 </v>
   <v>      -0.00231297      -0.00348261      -0.00152651 </v>
   <v>       0.00325120      -0.00068453      -0.00687898 </v>
   <v>      -0.00730528      -0.00262194       0.00192280 </v>
   <v>      -0.00134380       0.00133233       0.00314060 </v>
   <v>       0.00288313       0.00125597       0.00387339 </v>
   <v>       0.00349769      -0.00123258      -0.00348317 </v>
   <v>       0.00546018      -0.00532156      -0.00275171 </v>
   <v>       0.00002357      -0.00020788      -0.00844498 </v>
   <v>       0.00011614      -0.00615021      -0.00034327 </v>
   <v>       0.00120992      -0.00022648      -0.00030376 </v>
   <v>       0.00157197      -0.00019985       0.00128753 </v>
   <v>      -0.00166459       0.00042300       0.00164403 </v>
   <v>       0.00056440      -0.00155382       0.00332149 </v>
   <v>      -0.00328623       0.00070921      -0.00110478 </v>
   <v>      -0.00087465       0.00052203      -0.00671869 </v>
   <v>      -0.00257248       0.00368063      -0.00304951 </v>
   <v>       0.00021677       0.00286647       0.00290123 </v>
   <v>       0.00356306       0.00178543       0.00311985 </v>
   <v>      -0.00256373       0.00559870       0.00490235 </v>
   <v>      -0.00070328       0.00021098       0.00009073 </v>
   <v>      -0.00116268      -0.00136831      -0.00447750 </v>
   <v>      -0.00235711      -0.00005900      -0.00258817 </v>
   <v>      -0.00375920      -0.00352768      -0.00332103 </v>
   <v>       0.00468567       0.00159835       0.00008875 </v>
   <v>      -0.00218709       0.00162952       0.00178506 </v>
   <v>       0.00182385       0.00089712       0.00156967 </v>
   <v>      -0.00087246      -0.00083964      -0.00192532 </v>
   <v>      -0.00042864      -0.00105276      -0.00065293 </v>
   <v>       0.00443567      -0.00394146       0.00009263 </v>
   <v>       0.00092163       0.00084327       0.00142900 </v>
   <v>       0.00325364      -0.00109384      -0.00150386 </v>
   <v>       0.00115089      -0.00080372      -0.00202388 </v>
   <v>      -0.00016317      -0.00164564      -0.00181689 </v>
   <v>       0.00008341       0.00234066       0.00166416 </v>
   <v>      -0.00111242       0.00353278       0.00009346 </v>
   <v>      -0.00023067       0.00135807       0.00170512 </v>
   <v>      -0.00285529      -0.00326196      -0.00109604 </v>
   <v>       0.00038698      -0.00029021      -0.00101309 </v>
   <v>      -0.00018230       0.00255027       0.00154680 </v>
   <v>      -0.00154248      -0.00372978      -0.00293753 </v>
   <v>       0.00039557      -0.00029703       0.00165275 </v>
   <v>      -0.00246450      -0.00105175      -0.00059578 </v>
   <v>       0.00197550      -0.00047193      -0.00250788 </v>
   <v>       0.00175403       0.00020929       0.00233476 </v>
   <v>      -0.00193448      -0.00226874       0.00169309 </v>
   <v>      -0.00256054       0.00100519      -0.00113140 </v>
   <v>      -0.00335908      -0.00015583       0.00104299 </v>
   <v>       0.00176650       0.00074889      -0.00191056 </v>
   <v>      -0.00244624      -0.00092825      -0.00430582 </v>
   <v>      -0.00505804      -0.00085770      -0.00062328 </v>
   <v>      -0.00085337       0.00205286       0.00242993 </v>
   <v>       0.00484413       0.00102840       0.00165853 </v>
   <v>       0.00153611       0.00094491       0.00366338 </v>
   <v>       0.00272495      -0.00312468      -0.00306208 </v>
   <v>      -0.00229250      -0.00012767       0.00012215 </v>
   <v>       0.00044740       0.00546010      -0.00015007 </v>
   <v>       0.00200709      -0.00495284      -0.00291293 </v>
   <v>       0.00058219      -0.00054410      -0.00017535 </v>
   <v>      -0.00089109      -0.00237258       0.00235423 </v>
   <v>      -0.00420807       0.00552324       0.00285278 </v>
   <v>       0.00225002      -0.00134876       0.00354081 </v>
   <v>      -0.00255913      -0.00268739      -0.00107360 </v>
   <v>       0.00245420       0.00390004      -0.00195430 </v>
   <v>       0.00009535       0.00191364      -0.00118176 </v>
   <v>       0.00297565      -0.00003856       0.00266857 </v>
   <v>      -0.00119444       0.00132814       0.00137787 </v>
   <v>       0.00126833       0.00230107       0.00183268 </v>
   <v>      -0.00207603      -0.00168085      -0.00037584 </v>
   <v>       0.00259290      -0.00025138      -0.00182019 </v>
   <v>      -0.00002941       0.00047330      -0.00125525 </v>
   <v>      -0.00146438       0.00189264       0.00394571 </v>
   <v>      -0.00007607       0.00113326       0.00185093 </v>
   <v>       0.00288764       0.00047627      -0.00040849 </v>
   <v>      -0.00094906      -0.00077897       0.00142851 </v>
   <v>       0.00112065       0.00177601      -0.00064650 </v>
   <v>      -0.00584467       0.00378180       0.00065711 </v>
   <v>       0.00314171       0.00009514       0.00263355 </v>
   <v>       0.00482779      -0.00186149       0.00182111 </v>
   <v>      -0.00199383       0.00260180      -0.00058449 </v>
   <v>       0.00281571      -0.00039396       0.00267555 </v>
   <v>       0.00054673       0.00003888      -0.00496661 </v>
   <v>       0.00148006       0.00269495      -0.00013524 </v>
   <v>      -0.00345545       0.00351245      -0.00274961 </v>
   <v>      -0.00046208       0.00155794       0.00202213 </v>
   <v>       0.00223047      -0.00291408       0.00488127 </v>
   <v>      -0.00309195      -0.00270154      -0.00306835 </v>
   <v>      -0.00117170       0.00335684      -0.00028838 </v>
   <v>       0.00050277      -0.00447395       0.00297177 </v>
   <v>       0.00482411       0.00226508       0.00226981 </v>
   <v>      -0.00116994       0.00720221       0.00070195 </v>
   <v>       0.00289886      -0.00244008      -0.00152973 </v>
   <v>      -0.00199676      -0.00132018      -0.00087657 </v>
   <v>       0.00434587       0.00207576      -0.00204654 </v>
   <v>      -0.00373075       0.00645180       0.00361490 </v>
   <v>       0.00339703      -0.00277434       0.00445723 </v>
  </varray>
  <varray name="stress" >
   <v>      -0.00680441       0.00359547      -0.00037722 </v>
   <v>       0.00359547      -0.00461735      -0.00297027 </v>
   <v>      -0.00037722      -0.00297026      -0.14163431 </v>
  </varray>
  <energy>
   <i name="e_fr_energy">  -1033.02636573 </i>
   <i name="e_wo_entrp">  -1033.02636573 </i>
   <i name="e_0_energy">     -0.00000000 </i>
  </energy>
  <time name="totalsc"> 3673.71 3734.27</time>
  <eigenvalues>
   <array>
    <dimension dim="1">band</dimension>
    <dimension dim="2">kpoint</dimension>
    <dimension dim="3">spin</dimension>
    <field>eigene</field>
    <field>occ</field>
    <set>
     <set comment="spin 1">
      <set comment="kpoint 1">
       <r>  -25.2712    1.0000 </r>
       <r>  -25.2688    1.0000 </r>
       <r>  -25.2655    1.0000 </r>
       <r>  -25.2112    1.0000 </r>
       <r>  -22.3480    1.0000 </r>
       <r>  -22.3469    1.0000 </r>
       <r>  -22.3457    1.0000 </r>
       <r>  -22.3400    1.0000 </r>
       <r>  -22.3389    1.0000 </r>
       <r>  -22.3343    1.0000 </r>
       <r>  -22.3018    1.0000 </r>
       <r>  -22.3005    1.0000 </r>
       <r>  -21.5312    1.0000 </r>
       <r>  -21.4887    1.0000 </r>
       <r>  -21.4877    1.0000 </r>
       <r>  -21.4404    1.0000 </r>
       <r>  -21.4393    1.0000 </r>
       <r>  -21.4364    1.0000 </r>
       <r>  -20.9523    1.0000 </r>
       <r>  -20.9424    1.0000 </r>
       <r>  -20.9421    1.0000 </r>
       <r>  -20.9215    1.0000 </r>
       <r>  -20.8799    1.0000 </r>
       <r>  -20.8786    1.0000 </r>
       <r>  -19.4385    1.0000 </r>
       <r>  -19.4375    1.0000 </r>
       <r>  -19.4143    1.0000 </r>
       <r>  -19.4141    1.0000 </r>
       <r>  -19.3798    1.0000 </r>
       <r>  -19.2639    1.0000 </r>
       <r>  -18.5420    1.0000 </r>
       <r>  -18.5101    1.0000 </r>
       <r>  -18.5086    1.0000 </r>
       <r>  -18.4379    1.0000 </r>
       <r>  -18.3852    1.0000 </r>
       <r>  -18.3838    1.0000 </r>
       <r>  -18.3246    1.0000 </r>
       <r>  -18.3241    1.0000 </r>
       <r>  -18.3046    1.0000 </r>
       <r>  -18.2942    1.0000 </r>
       <r>  -18.2928    1.0000 </r>
       <r>  -18.2794    1.0000 </r>
       <r>  -18.2320    1.0000 </r>
       <r>  -18.2314    1.0000 </r>
       <r>  -18.2169    1.0000 </r>
       <r>  -18.1352    1.0000 </r>
       <r>  -18.0745    1.0000 </r>
       <r>  -18.0741    1.0000 </r>
       <r>  -16.9783    1.0000 </r>
       <r>  -16.9769    1.0000 </r>
       <r>  -16.7301    1.0000 </r>
       <r>  -16.7283    1.0000 </r>
       <r>  -16.6995    1.0000 </r>
       <r>  -16.0392    1.0000 </r>
       <r>  -16.0313    1.0000 </r>
       <r>  -16.0299    1.0000 </r>
       <r>  -15.7605    1.0000 </r>
       <r>  -15.2958    1.0000 </r>
       <r>  -15.1912    1.0000 </r>
       <r>  -15.1900    1.0000 </r>
       <r>  -15.0123    1.0000 </r>
       <r>  -15.0106    1.0000 </r>
       <r>  -14.9943    1.0000 </r>
       <r>  -14.9659    1.0000 </r>
       <r>  -14.9239    1.0000 </r>
       <r>  -14.9210    1.0000 </r>
       <r>  -14.7473    1.0000 </r>
       <r>  -14.7418    1.0000 </r>
       <r>  -14.6568    1.0000 </r>
       <r>  -14.5730    1.0000 </r>
       <r>  -14.4083    1.0000 </r>
       <r>  -14.4067    1.0000 </r>
       <r>  -14.3707    1.0000 </r>
       <r>  -14.3689    1.0000 </r>
       <r>  -14.0469    1.0000 </r>
       <r>  -13.9622    1.0000 </r>
       <r>  -13.9612    1.0000 </r>
       <r>  -13.8166    1.0000 </r>
       <r>  -13.8160    1.0000 </r>
       <r>  -13.7901    1.0000 </r>
       <r>  -13.3175    1.0000 </r>
       <r>  -13.2418    1.0000 </r>
       <r>  -13.2401    1.0000 </r>
       <r>  -13.2292    1.0000 </r>
       <r>  -13.1120    1.0000 </r>
       <r>  -13.1113    1.0000 </r>
       <r>  -13.0731    1.0000 </r>
       <r>  -13.0646    1.0000 </r>
       <r>  -12.7197    1.0000 </r>
       <r>  -12.7191    1.0000 </r>
       <r>  -12.4856    1.0000 </r>
       <r>  -12.4756    1.0000 </r>
       <r>  -12.4740    1.0000 </r>
       <r>  -11.8819    1.0000 </r>
       <r>  -11.6504    1.0000 </r>
       <r>  -11.6421    1.0000 </r>
       <r>  -11.6397    1.0000 </r>
       <r>  -11.4675    1.0000 </r>
       <r>  -11.3890    1.0000 </r>
       <r>  -11.3856    1.0000 </r>
       <r>  -11.3148    1.0000 </r>
       <r>  -11.3138    1.0000 </r>
       <r>  -11.2055    1.0000 </r>
       <r>  -11.1982    1.0000 </r>
       <r>  -11.1884    1.0000 </r>
       <r>  -11.1880    1.0000 </r>
       <r>  -11.0786    1.0000 </r>
       <r>  -11.0749    1.0000 </r>
       <r>  -10.9719    1.0000 </r>
       <r>  -10.9706    1.0000 </r>
       <r>  -10.9555    1.0000 </r>
       <r>  -10.9439    1.0000 </r>
       <r>  -10.6236    1.0000 </r>
       <r>  -10.6013    1.0000 </r>
       <r>  -10.6003    1.0000 </r>
       <r>  -10.5996    1.0000 </r>
       <r>  -10.5763    1.0000 </r>
       <r>  -10.5752    1.0000 </r>
       <r>  -10.5302    1.0000 </r>
       <r>  -10.5251    1.0000 </r>
       <r>  -10.4733    1.0000 </r>
       <r>  -10.4720    1.0000 </r>
       <r>  -10.3816    1.0000 </r>
       <r>  -10.3784    1.0000 </r>
       <r>  -10.2777    1.0000 </r>
       <r>  -10.2444    1.0000 </r>
       <r>  -10.2440    1.0000 </r>
       <r>  -10.2065    1.0000 </r>
       <r>  -10.1845    1.0000 </r>
       <r>  -10.1821    1.0000 </r>
       <r>  -10.1543    1.0000 </r>
       <r>  -10.0149    1.0000 </r>
       <r>  -10.0135    1.0000 </r>
       <r>  -10.0053    1.0000 </r>
       <r>   -9.9928    1.0000 </r>
       <r>   -9.9890    1.0000 </r>
       <r>   -9.9868    1.0000 </r>
       <r>   -9.9261    1.0000 </r>
       <r>   -9.9258    1.0000 </r>
       <r>   -9.8944    1.0000 </r>
       <r>   -9.8930    1.0000 </r>
       <r>   -9.8907    1.0000 </r>
       <r>   -9.4672    1.0000 </r>
       <r>   -9.4659    1.0000 </r>
       <r>   -9.3251    1.0000 </r>
       <r>   -9.3224    1.0000 </r>
       <r>   -9.2800    1.0000 </r>
       <r>   -9.2648    1.0000 </r>
       <r>   -9.1736    1.0000 </r>
       <r>   -9.1652    1.0000 </r>
       <r>   -9.1642    1.0000 </r>
       <r>   -8.9826    1.0000 </r>
       <r>   -8.9810    1.0000 </r>
       <r>   -8.9258    1.0000 </r>
       <r>   -8.8718    1.0000 </r>
       <r>   -8.8696    1.0000 </r>
       <r>   -8.8434    1.0000 </r>
       <r>   -8.5723    1.0000 </r>
       <r>   -8.5714    1.0000 </r>
       <r>   -8.5587    1.0000 </r>
       <r>   -8.5563    1.0000 </r>
       <r>   -8.5181    1.0000 </r>
[...]
       <r>   -17.6097     0.0000    96.0000 </r>
       <r>   -17.5132     0.0000    96.0000 </r>
       <r>   -17.4167     0.0000    96.0000 </r>
       <r>   -17.3201     0.0000    96.0000 </r>
       <r>   -17.2236     0.0000    96.0000 </r>
       <r>   -17.1271     0.0000    96.0000 </r>
       <r>   -17.0305     0.0000    96.0000 </r>
       <r>   -16.9340    41.4350   100.0000 </r>
       <r>   -16.8374    11.5251   101.1126 </r>
       <r>   -16.7409    11.1837   102.3800 </r>
       <r>   -16.6444     3.5701   104.3446 </r>
       <r>   -16.5478     3.4955   104.7708 </r>
       <r>   -16.4513    11.5248   105.9792 </r>
       <r>   -16.3548     0.0000   106.0000 </r>
       <r>   -16.2582     2.2266   106.2149 </r>
       <r>   -16.1617     7.8138   107.2548 </r>
       <r>   -16.0652     3.4259   107.6641 </r>
       <r>   -15.9686    43.8441   112.0000 </r>
       <r>   -15.8721     0.0000   112.0000 </r>
       <r>   -15.7755     0.0175   112.0017 </r>
       <r>   -15.6790     4.6333   112.5145 </r>
       <r>   -15.5825     3.0801   112.8641 </r>
       <r>   -15.4859     9.8888   113.8880 </r>
       <r>   -15.3894     0.0001   114.0000 </r>
       <r>   -15.2929    26.4960   116.5578 </r>
       <r>   -15.1963    22.7517   119.2631 </r>
       <r>   -15.0998    16.3259   121.5768 </r>
       <r>   -15.0033    14.1779   123.0021 </r>
       <r>   -14.9067    47.7603   128.7441 </r>
       <r>   -14.8102    16.5196   130.6289 </r>
       <r>   -14.7136    46.2001   135.1603 </r>
       <r>   -14.6171    22.7423   138.4297 </r>
       <r>   -14.5206    19.6140   140.8613 </r>
       <r>   -14.4240    24.0912   143.4593 </r>
       <r>   -14.3275    12.0581   145.0979 </r>
       <r>   -14.2310    18.8109   147.8166 </r>
       <r>   -14.1344     0.0845   148.0082 </r>
       <r>   -14.0379    17.4172   149.9825 </r>
       <r>   -13.9413    25.4758   152.4594 </r>
       <r>   -13.8448    19.5703   154.5563 </r>
       <r>   -13.7483    49.0212   160.0000 </r>
       <r>   -13.6517     0.0000   160.0000 </r>
       <r>   -13.5552     0.0000   160.0000 </r>
       <r>   -13.4587     0.0000   160.0000 </r>
       <r>   -13.3621     0.0000   160.0000 </r>
       <r>   -13.2656    21.3617   162.0622 </r>
       <r>   -13.1691    49.3559   168.0000 </r>
       <r>   -13.0725    45.0330   172.3473 </r>
       <r>   -12.9760    14.1525   176.0000 </r>
       <r>   -12.8794     0.0000   176.0000 </r>
       <r>   -12.7829     0.0000   176.0000 </r>
       <r>   -12.6864    41.4348   180.0000 </r>
       <r>   -12.5898     7.9012   180.7628 </r>
       <r>   -12.4933     6.9660   181.9727 </r>
       <r>   -12.3968     9.9444   184.4300 </r>
       <r>   -12.3002     3.7880   184.8657 </r>
       <r>   -12.2037    11.0424   185.9996 </r>
       <r>   -12.1071     0.1400   186.0135 </r>
       <r>   -12.0106     9.7830   187.1783 </r>
       <r>   -11.9141     3.8697   187.6403 </r>
       <r>   -11.8175     2.7592   188.0000 </r>
       <r>   -11.7210     0.0000   188.0000 </r>
       <r>   -11.6245    28.2718   190.7293 </r>
       <r>   -11.5279    15.9898   192.8135 </r>
       <r>   -11.4314    35.8003   196.3563 </r>
       <r>   -11.3349    58.2773   202.5927 </r>
       <r>   -11.2383    15.6974   204.9174 </r>
       <r>   -11.1418    53.7180   210.7216 </r>
       <r>   -11.0452    63.3523   217.0834 </r>
       <r>   -10.9487    31.6511   220.3559 </r>
       <r>   -10.8522    17.2611   224.0000 </r>
       <r>   -10.7556     0.0000   224.0000 </r>
       <r>   -10.6591     2.7276   224.2633 </r>
       <r>   -10.5626    90.5908   234.0794 </r>
       <r>   -10.4660    78.4051   243.5690 </r>
       <r>   -10.3695    43.8246   248.2307 </r>
       <r>   -10.2730    21.9318   251.2512 </r>
       <r>   -10.1764    42.1665   256.6068 </r>
       <r>   -10.0799    25.2907   260.7779 </r>
       <r>    -9.9833   123.5223   272.8247 </r>
       <r>    -9.8868    87.6423   282.4607 </r>
       <r>    -9.7903     0.0000   284.0000 </r>
       <r>    -9.6937     0.0000   284.0000 </r>
       <r>    -9.5972     0.0000   284.0000 </r>
       <r>    -9.5007     0.0105   284.0010 </r>
       <r>    -9.4041    41.4253   288.0001 </r>
       <r>    -9.3076    41.3843   291.9953 </r>
       <r>    -9.2110    42.5923   296.1117 </r>
       <r>    -9.1145    52.1609   301.9038 </r>
       <r>    -9.0180    13.7352   303.3260 </r>
       <r>    -8.9214    34.8796   306.9008 </r>
       <r>    -8.8249    45.0630   312.3503 </r>
       <r>    -8.7284    14.8459   314.0000 </r>
       <r>    -8.6318     0.0007   314.0001 </r>
       <r>    -8.5353    82.5740   321.9715 </r>
       <r>    -8.4388    44.7746   328.0000 </r>
       <r>    -8.3422     0.0046   328.0004 </r>
       <r>    -8.2457   108.7474   338.4986 </r>
       <r>    -8.1491    46.4048   344.8481 </r>
       <r>    -8.0526    46.6640   350.3724 </r>
       <r>    -7.9561    37.5323   355.6232 </r>
       <r>    -7.8595    82.8696   364.0000 </r>
       <r>    -7.7630    32.6721   367.1541 </r>
       <r>    -7.6665    97.5981   379.7997 </r>
       <r>    -7.5699     0.0000   380.0000 </r>
       <r>    -7.4734     0.0000   380.0000 </r>
       <r>    -7.3769     0.0000   380.0000 </r>
       <r>    -7.2803     0.0000   380.0000 </r>
       <r>    -7.1838     0.0000   380.0000 </r>
       <r>    -7.0872     0.0000   380.0000 </r>
       <r>    -6.9907     0.0000   380.0000 </r>
       <r>    -6.8942     0.0000   380.0000 </r>
       <r>    -6.7976     0.0000   380.0000 </r>
       <r>    -6.7011     0.0257   380.0025 </r>
       <r>    -6.6046    20.6919   382.0000 </r>
       <r>    -6.5080    41.4350   386.0000 </r>
       <r>    -6.4115     0.0000   386.0000 </r>
       <r>    -6.3149    53.2321   391.1388 </r>
       <r>    -6.2184   127.4246   404.7937 </r>
       <r>    -6.1219    62.1470   415.9995 </r>
       <r>    -6.0253     0.0000   416.0000 </r>
       <r>    -5.9288     0.0000   416.0000 </r>
       <r>    -5.8323    47.8079   420.6152 </r>
       <r>    -5.7357    41.5131   430.0076 </r>
       <r>    -5.6392    41.3507   433.9995 </r>
       <r>    -5.5427    41.7397   438.0294 </r>
       <r>    -5.4461    41.4344   444.0000 </r>
       <r>    -5.3496     0.0000   444.0000 </r>
       <r>    -5.2530     0.0000   444.0000 </r>
       <r>    -5.1565     0.0000   444.0000 </r>
       <r>    -5.0600     0.0000   444.0000 </r>
       <r>    -4.9634     0.0000   444.0000 </r>
       <r>    -4.8669     0.0000   444.0000 </r>
       <r>    -4.7704     0.0000   444.0000 </r>
       <r>    -4.6738     0.0000   444.0000 </r>
       <r>    -4.5773     0.0000   444.0000 </r>
       <r>    -4.4808     0.0000   444.0000 </r>
       <r>    -4.3842     0.0000   444.0000 </r>
       <r>    -4.2877     0.0000   444.0000 </r>
       <r>    -4.1911     0.0000   444.0000 </r>
       <r>    -4.0946     0.0000   444.0000 </r>
       <r>    -3.9981     0.0000   444.0000 </r>
       <r>    -3.9015     0.0000   444.0000 </r>
       <r>    -3.8050     0.0000   444.0000 </r>
       <r>    -3.7085     0.0000   444.0000 </r>
       <r>    -3.6119     0.0000   444.0000 </r>
       <r>    -3.5154     0.0000   444.0000 </r>
       <r>    -3.4188     0.0000   444.0000 </r>
       <r>    -3.3223     0.0000   444.0000 </r>
       <r>    -3.2258     0.0000   444.0000 </r>
       <r>    -3.1292     0.0000   444.0000 </r>
       <r>    -3.0327     0.0000   444.0000 </r>
       <r>    -2.9362     0.0000   444.0000 </r>
       <r>    -2.8396    41.4341   447.9999 </r>
       <r>    -2.7431     0.0000   448.0000 </r>
       <r>    -2.6466    10.3014   448.9945 </r>
       <r>    -2.5500     0.0000   450.0000 </r>
       <r>    -2.4535     0.0000   450.0000 </r>
       <r>    -2.3569    20.7175   452.0000 </r>
       <r>    -2.2604    38.9756   455.7626 </r>
       <r>    -2.1639    31.0678   460.0000 </r>
       <r>    -2.0673     0.0000   460.0000 </r>
       <r>    -1.9708     0.0000   460.0000 </r>
       <r>    -1.8743     0.0000   460.0000 </r>
       <r>    -1.7777     0.0000   460.0000 </r>
       <r>    -1.6812     0.0000   460.0000 </r>
       <r>    -1.5847    14.2039   461.3712 </r>
       <r>    -1.4881     3.7948   462.0000 </r>
       <r>    -1.3916     0.0001   462.0000 </r>
       <r>    -1.2950    39.8245   465.8445 </r>
       <r>    -1.1985   101.6145   475.8172 </r>
       <r>    -1.1020    12.2148   478.1137 </r>
       <r>    -1.0054    41.2896   482.5533 </r>
       <r>    -0.9089    15.1996   487.4673 </r>
       <r>    -0.8124     2.4956   490.2409 </r>
       <r>    -0.7158    29.6907   494.0000 </r>
       <r>    -0.6193    20.7201   496.0003 </r>
       <r>    -0.5227    56.4646   501.9848 </r>
       <r>    -0.4262     0.0000   502.0000 </r>
       <r>    -0.3297     3.7172   502.3588 </r>
       <r>    -0.2331    27.1884   505.7614 </r>
       <r>    -0.1366    28.3164   508.7336 </r>
       <r>    -0.0401    38.1497   513.8181 </r>
       <r>     0.0565    21.5251   516.7452 </r>
       <r>     0.1530    48.5802   521.9578 </r>
       <r>     0.2495    32.3820   525.6598 </r>
       <r>     0.3461    69.0944   532.7382 </r>
       <r>     0.4426    68.1892   542.1229 </r>
       <r>     0.5392    73.4203   550.1549 </r>
       <r>     0.6357    75.3258   558.8057 </r>
       <r>     0.7322   103.7066   570.0485 </r>
       <r>     0.8288   105.4602   581.4832 </r>
       <r>     0.9253   104.7565   594.2141 </r>
       <r>     1.0218    88.6176   605.1919 </r>
       <r>     1.1184    14.8365   608.0000 </r>
       <r>     1.2149     0.0000   608.0000 </r>
       <r>     1.3114     0.0000   608.0000 </r>
       <r>     1.4080     0.0000   608.0000 </r>
       <r>     1.5045     0.0000   608.0000 </r>
       <r>     1.6011     0.0000   608.0000 </r>
       <r>     1.6976     0.0000   608.0000 </r>
       <r>     1.7941     0.0000   608.0000 </r>
       <r>     1.8907     0.0000   608.0000 </r>
       <r>     1.9872     0.0000   608.0000 </r>
       <r>     2.0837     0.0000   608.0000 </r>
       <r>     2.1803     0.0000   608.0000 </r>
       <r>     2.2768     0.0000   608.0000 </r>
       <r>     2.3734     0.0000   608.0000 </r>
      </set>
     </set>
    </array>
   </total>
  </dos>
 </calculation>
 <structure name="finalpos" >
  <crystal>
   <varray name="basis" >
    <v>      33.88669943       0.01257998       0.00000000 </v>
    <v>     -16.92773453      29.32597421       0.00000000 </v>
    <v>       0.00000000       0.00000000      20.00000000 </v>
   </varray>
   <i name="volume">  19879.46847847 </i>
   <varray name="rec_basis" >
    <v>       0.02950378       0.01703037       0.00000000 </v>
    <v>      -0.00001266       0.03409216       0.00000000 </v>
    <v>       0.00000000       0.00000000       0.05000000 </v>
   </varray>
  </crystal>
  <varray name="positions" >
   <v>       0.15695126       0.96017001       0.54649359 </v>
   <v>       0.11476107       0.00246786       0.54337431 </v>
   <v>       0.10865564       0.76365160       0.54311154 </v>
   <v>       0.06644652       0.80594258       0.54489768 </v>
   <v>       0.81880683       0.83758276       0.54616300 </v>
   <v>       0.90322202       0.87994595       0.54296083 </v>
   <v>       0.67057571       0.88596840       0.54337471 </v>
   <v>       0.75498821       0.92810251       0.54572813 </v>
   <v>       0.03511067       0.17667024       0.54712512 </v>
   <v>       0.99265053       0.09215366       0.54442325 </v>
   <v>       0.23140907       0.32448543       0.54121038 </v>
   <v>       0.18906576       0.23998526       0.54363287 </v>
   <v>       0.41304976       0.88647463       0.59264128 </v>
   <v>       0.33188500       0.86721701       0.58704302 </v>
   <v>       0.48200214       0.77558786       0.60657892 </v>
   <v>       0.42307891       0.79869638       0.60595581 </v>
   <v>       0.48985123       0.58147764       0.59173428 </v>
   <v>       0.55147653       0.66279326       0.58598769 </v>
   <v>       0.30959192       0.51397618       0.60449633 </v>
   <v>       0.39174856       0.57240169       0.60414299 </v>
   <v>       0.10762594       0.50496379       0.59180354 </v>
   <v>       0.12756237       0.44346458       0.58543750 </v>
   <v>       0.21951610       0.68514134       0.60568016 </v>
   <v>       0.19586789       0.60292639       0.60485532 </v>
   <v>       0.18921382       0.92868921       0.48733326 </v>
   <v>       0.23154458       0.88652503       0.49024527 </v>
   <v>       0.99280510       0.88008213       0.48611248 </v>
   <v>       0.03523154       0.83800591       0.48431095 </v>
   <v>       0.75500616       0.80536386       0.48751671 </v>
   <v>       0.67059541       0.76307195       0.48986377 </v>
   <v>       0.90252865       0.00214294       0.48745075 </v>
   <v>       0.81809817       0.95958933       0.48571745 </v>
   <v>       0.06624700       0.24015706       0.48705026 </v>
   <v>       0.10846575       0.32465415       0.48920408 </v>
   <v>       0.11441549       0.09194668       0.48542822 </v>
   <v>       0.15666567       0.17646697       0.48324587 </v>
   <v>       0.48840271       0.88543107       0.43625241 </v>
   <v>       0.55048013       0.86642555       0.44215558 </v>
   <v>       0.30901674       0.77442874       0.42513781 </v>
   <v>       0.39102640       0.79757860       0.42550132 </v>
   <v>       0.41319323       0.50496146       0.43718305 </v>
   <v>       0.33189078       0.44347803       0.44282328 </v>
   <v>       0.48095346       0.68541172       0.42474662 </v>
   <v>       0.42242103       0.60324470       0.42514930 </v>
   <v>       0.10769168       0.58194123       0.43725991 </v>
   <v>       0.12730773       0.66327119       0.44343447 </v>
   <v>       0.22011538       0.51443785       0.42387824 </v>
   <v>       0.19622729       0.57283883       0.42487175 </v>
   <v>       0.97987042       0.01491257       0.51493934 </v>
   <v>       0.98001414       0.94459818       0.51461210 </v>
   <v>       0.05022098       0.01497731       0.51494667 </v>
   <v>       0.17310763       0.75109580       0.51702400 </v>
   <v>       0.24397174       0.82180742       0.51600034 </v>
   <v>       0.24331058       0.75120362       0.51463603 </v>
   <v>       0.59367434       0.82166194       0.51662110 </v>
   <v>       0.59348898       0.75069784       0.51497084 </v>
   <v>       0.52360524       0.75131146       0.51446766 </v>
   <v>       0.24394937       0.40158242       0.51558348 </v>
   <v>       0.17326151       0.40176841       0.51392754 </v>
   <v>       0.24376680       0.47174365       0.51340788 </v>
   <v>       0.02568466       0.03627960       0.51491411 </v>
   <v>       0.95862066       0.96905856       0.51485818 </v>
   <v>       0.02581719       0.96913015       0.51475397 </v>
   <v>       0.19758479       0.72995882       0.51838518 </v>
   <v>       0.19791984       0.79716599       0.51663600 </v>
   <v>       0.26480020       0.79703919       0.51259952 </v>
   <v>       0.54806672       0.79708244       0.51810912 </v>
   <v>       0.61488488       0.79677718       0.51600405 </v>
   <v>       0.54793280       0.72981339       0.51195001 </v>
   <v>       0.26501607       0.44721143       0.51710571 </v>
   <v>       0.19790488       0.38033047       0.51488410 </v>
   <v>       0.19796406       0.44736743       0.51098171 </v>
   <v>       0.17281599       0.82237004       0.51670575 </v>
   <v>       0.12597439       0.79989185       0.53120404 </v>
   <v>       0.10243880       0.82372882       0.53134484 </v>
   <v>       0.12453938       0.87060902       0.51602962 </v>
   <v>       0.12118582       0.94251473       0.53170830 </v>
   <v>       0.09763130       0.96633482       0.53081041 </v>
   <v>       0.66514173       0.82182386       0.51645623 </v>
   <v>       0.68947523       0.86863505       0.53141346 </v>
   <v>       0.73680130       0.89213405       0.53189347 </v>
   <v>       0.76157350       0.87004896       0.51645686 </v>
   <v>       0.83682968       0.87343618       0.53170430 </v>
   <v>       0.88416064       0.89707505       0.53074590 </v>
   <v>       0.17268157       0.33002014       0.51516359 </v>
   <v>       0.19514696       0.30560136       0.52963323 </v>
   <v>       0.17128070       0.25823043       0.53014430 </v>
   <v>       0.12437167       0.23349279       0.51527822 </v>
   <v>       0.05257992       0.15841108       0.53200823 </v>
   <v>       0.02867698       0.11103319       0.53133314 </v>
   <v>       0.39064918       0.86309300       0.55429436 </v>
   <v>       0.34500419       0.85213330       0.55150785 </v>
   <v>       0.45102897       0.84271969       0.51996226 </v>
   <v>       0.51964950       0.81898422       0.52377073 </v>
   <v>       0.48433922       0.80110999       0.57107189 </v>
   <v>       0.45126024       0.81388532       0.57041672 </v>
   <v>       0.48871067       0.60382649       0.55340414 </v>
   <v>       0.52321470       0.64957950       0.55059036 </v>
   <v>       0.40783707       0.54339352       0.51946962 </v>
   <v>       0.31529065       0.47542565       0.52291452 </v>
   <v>       0.33276939       0.51112861       0.56961193 </v>
   <v>       0.37869125       0.54389333       0.56914091 </v>
   <v>       0.13104581       0.50622168       0.55329870 </v>
   <v>       0.14243432       0.47181316       0.55014170 </v>
   <v>       0.15112737       0.58709226       0.51982327 </v>
   <v>       0.17551490       0.67963197       0.52390936 </v>
   <v>       0.19360490       0.66202102       0.57060920 </v>
   <v>       0.18051910       0.61608026       0.56984148 </v>
   <v>       0.17143917       0.89271045       0.50111916 </v>
   <v>       0.19529715       0.86920449       0.50192483 </v>
   <v>       0.09936033       0.89578080       0.51555558 </v>
   <v>       0.05103581       0.94398455       0.51484307 </v>
   <v>       0.02885270       0.89732562       0.49907237 </v>
   <v>       0.05273883       0.87383554       0.49888352 </v>
   <v>       0.73681309       0.82315058       0.50128767 </v>
   <v>       0.68948204       0.79931390       0.50176129 </v>
   <v>       0.81187447       0.89528816       0.51603443 </v>
   <v>       0.90830325       0.94377341       0.51517212 </v>
   <v>       0.88378411       0.96599635       0.49998670 </v>
   <v>       0.83645048       0.94202958       0.49985115 </v>
   <v>       0.10226414       0.25833611       0.50045008 </v>
   <v>       0.12580583       0.30570738       0.50084694 </v>
   <v>       0.09917165       0.18314223       0.51518419 </v>
   <v>       0.05083413       0.08663556       0.51494286 </v>
   <v>       0.09737168       0.11092993       0.49863164 </v>
   <v>       0.12093670       0.15830442       0.49821557 </v>
   <v>       0.31503229       0.81879309       0.50673132 </v>
   <v>       0.33231636       0.80036735       0.46002404 </v>
   <v>       0.37814663       0.81317110       0.46054455 </v>
   <v>       0.40737897       0.84262852       0.51030394 </v>
   <v>       0.48782688       0.86262401       0.47528242 </v>
   <v>       0.52258782       0.85175075       0.47819654 </v>
   <v>       0.51957773       0.67952833       0.50602884 </v>
   <v>       0.48380904       0.66214461       0.45947467 </v>
   <v>       0.45097315       0.61622476       0.46001264 </v>
   <v>       0.45144609       0.58698727       0.50959650 </v>
   <v>       0.39090581       0.50615526       0.47554457 </v>
   <v>       0.34514360       0.47172415       0.47829465 </v>
   <v>       0.17594744       0.47564705       0.50532785 </v>
   <v>       0.19408142       0.51147782       0.45883424 </v>
   <v>       0.18085044       0.54421978       0.45968744 </v>
   <v>       0.15124647       0.54356321       0.50956713 </v>
   <v>       0.13095249       0.60414391       0.47587702 </v>
   <v>       0.14217478       0.64990315       0.47893588 </v>
  </varray>
 </structure>
</modeling>
