<?xml version="1.0" encoding="ISO-8859-1"?>
<modeling>
 <generator>
  <i name="program" type="string">vasp </i>
  <i name="version" type="string">5.4.4.18Apr17-6-g9f103f2a35  </i>
  <i name="subversion" type="string">(build Jun 07 2020 16:50:00) complex            parallel </i>
  <i name="platform" type="string">LinuxIFC </i>
  <i name="date" type="string">2023 03 02 </i>
  <i name="time" type="string">11:00:22 </i>
 </generator>
 <incar>
  <i type="string" name="SYSTEM">Simulation for cell shape cell volume r</i>
  <i type="int" name="ISTART">     1</i>
  <i type="string" name="PREC">high</i>
  <i type="string" name="ALGO">48</i>
  <i type="int" name="ICHARG">    11</i>
  <i type="int" name="NELM">   200</i>
  <i type="int" name="IBRION">    -1</i>
  <i name="EDIFF">      0.00001000</i>
  <i name="EDIFFG">     -0.01000000</i>
  <i type="int" name="NSW">     0</i>
  <i type="int" name="ISIF">     2</i>
  <i name="ENCUT">    500.00000000</i>
  <i name="POTIM">      0.30000000</i>
  <i type="string" name="LREAL">A</i>
  <i type="int" name="ISMEAR">     0</i>
  <i name="SIGMA">      0.01000000</i>
  <i type="int" name="NWRITE">     0</i>
  <i type="logical" name="LWAVE"> F  </i>
  <i type="logical" name="LCHARG"> F  </i>
  <v type="int" name="KPOINT_BSE">    -1     0     0     0</v>
  <i type="int" name="NELM">   200</i>
  <i type="string" name="GGA">PE</i>
 </incar>
 <structure name="primitive_cell" >
  <crystal>
   <varray name="basis" >
    <v>      29.40898826       0.04859794       0.00000000 </v>
    <v>     -14.66202610      25.46096712       0.00000000 </v>
    <v>       0.00000000       0.00000000      20.00000000 </v>
   </varray>
   <i name="volume">  14989.87655117 </i>
   <varray name="rec_basis" >
    <v>       0.03397088       0.01956257       0.00000000 </v>
    <v>      -0.00006484       0.03923847       0.00000000 </v>
    <v>       0.00000000       0.00000000       0.05000000 </v>
   </varray>
  </crystal>
  <varray name="positions" >
   <v>       0.38405012      -0.29538274      -0.45614943 </v>
   <v>       0.34557095      -0.28374276      -0.45623682 </v>
   <v>       0.36811516      -0.34707127      -0.45579054 </v>
   <v>       0.43598306      -0.21206198      -0.47078022 </v>
   <v>       0.31815243      -0.38546565      -0.45558252 </v>
   <v>       0.29397387      -0.31934339      -0.45600992 </v>
   <v>       0.41037693      -0.36167551      -0.45549228 </v>
   <v>       0.35998494      -0.22694379      -0.45646558 </v>
   <v>       0.43768907      -0.34033738      -0.49717884 </v>
   <v>       0.41552345      -0.19328127      -0.46142236 </v>
   <v>       0.28247087      -0.36939626      -0.45529881 </v>
   <v>       0.43363571      -0.34486925      -0.40928626 </v>
   <v>       0.34354493      -0.22009761      -0.41012457 </v>
   <v>       0.33823869      -0.22127708      -0.49797109 </v>
   <v>       0.38865120      -0.41735406      -0.45959434 </v>
   <v>       0.34972334      -0.43770401      -0.47020102 </v>
   <v>       0.43951415      -0.13983551      -0.47173118 </v>
   <v>       0.22581029      -0.41166580      -0.45397493 </v>
   <v>      -0.48710148      -0.13365909       0.49700451 </v>
   <v>       0.21014136      -0.35098979      -0.46785500 </v>
   <v>       0.22002684      -0.43488907      -0.40787772 </v>
   <v>       0.21941416      -0.43905615      -0.49581090 </v>
   <v>       0.49227390      -0.11207966      -0.49276187 </v>
   <v>       0.49331406      -0.37462312      -0.44115599 </v>
   <v>       0.41839095      -0.44112865      -0.47036234 </v>
   <v>       0.19174734      -0.38992443      -0.45696827 </v>
   <v>       0.37272169      -0.13098695      -0.44459308 </v>
   <v>       0.41349805      -0.11110376      -0.46100588 </v>
   <v>       0.47285915      -0.41516974      -0.45862987 </v>
   <v>       0.39398857      -0.49356387      -0.49277264 </v>
   <v>       0.35203650       0.48588619       0.49611927 </v>
   <v>      -0.48217187      -0.05810938       0.49807044 </v>
   <v>       0.13849067      -0.41967854      -0.46846577 </v>
   <v>       0.43995946      -0.05679241      -0.46940921 </v>
   <v>      -0.49903044      -0.44144045      -0.46724776 </v>
   <v>       0.13169283      -0.35286520       0.49972513 </v>
   <v>      -0.44194855      -0.03829835       0.47953467 </v>
   <v>       0.13044285      -0.49497409      -0.44110885 </v>
   <v>       0.49266564      -0.02858976      -0.48993818 </v>
   <v>       0.11046271      -0.39502497      -0.49025619 </v>
   <v>       0.11029559      -0.47436496      -0.45807888 </v>
   <v>       0.41911638      -0.03549171      -0.45904524 </v>
   <v>      -0.45715100      -0.42067687      -0.45600182 </v>
   <v>       0.42268204       0.48108809       0.49778604 </v>
   <v>       0.47705107      -0.49387762      -0.48906592 </v>
   <v>      -0.41988250       0.00976866      -0.42383228 </v>
   <v>       0.40274178       0.44116574       0.47810039 </v>
   <v>      -0.48066345       0.02873185       0.49894593 </v>
   <v>       0.05668077      -0.42371365       0.49956924 </v>
   <v>       0.05615237       0.49748993      -0.46748462 </v>
   <v>      -0.39871594       0.04474378      -0.44755759 </v>
   <v>       0.45218256       0.02574219       0.45181700 </v>
   <v>      -0.42707435      -0.45209860       0.45607742 </v>
   <v>      -0.49196644       0.47967374       0.49998178 </v>
   <v>       0.02764979      -0.47833645      -0.48868899 </v>
   <v>       0.03665338      -0.40357088       0.48045774 </v>
   <v>      -0.42813240       0.06310250      -0.48094622 </v>
   <v>       0.42683278       0.41702471      -0.42633987 </v>
   <v>       0.49255239       0.05159179       0.46790245 </v>
   <v>       0.03521353       0.45538696      -0.45737853 </v>
   <v>      -0.44172059      -0.49279945       0.47101385 </v>
   <v>      -0.36904160       0.07186763      -0.41906840 </v>
   <v>       0.44121845       0.39641573      -0.45039621 </v>
   <v>       0.48971444       0.42668283      -0.48153022 </v>
   <v>      -0.01178079      -0.42960075      -0.42367352 </v>
   <v>      -0.40424099       0.11703213      -0.49523053 </v>
   <v>      -0.48458683       0.10495530       0.45542247 </v>
   <v>      -0.02950472       0.49079226       0.49957219 </v>
   <v>      -0.02551783       0.42691057       0.45299918 </v>
   <v>       0.43808200       0.36598795      -0.42283941 </v>
   <v>      -0.41070846       0.48472424       0.45917121 </v>
   <v>      -0.04657299      -0.44351307      -0.44787376 </v>
   <v>      -0.43173947       0.13865944       0.47329851 </v>
   <v>      -0.36343730       0.14202408      -0.48032866 </v>
   <v>       0.49338649       0.12079084       0.43017420 </v>
   <v>      -0.05175052       0.44119823       0.46870538 </v>
   <v>      -0.47966383       0.40321034      -0.49512263 </v>
   <v>      -0.37236714      -0.49263777       0.43552899 </v>
   <v>      -0.06433635      -0.49129948      -0.48089083 </v>
   <v>      -0.42987727       0.43151521       0.47560985 </v>
   <v>      -0.07402461      -0.44105828      -0.41983763 </v>
   <v>      -0.49551778       0.36209486      -0.48141233 </v>
   <v>      -0.40823875       0.19169813       0.45822985 </v>
   <v>      -0.10498360       0.41045366       0.45597856 </v>
   <v>      -0.11813216       0.47839095      -0.49534719 </v>
   <v>      -0.43204241       0.20748770       0.45465743 </v>
   <v>      -0.39972691       0.40851306       0.46139597 </v>
   <v>      -0.34750987       0.22255045      -0.46892067 </v>
   <v>      -0.12034666       0.37263393       0.43088093 </v>
   <v>      -0.35561137       0.22838345       0.47830042 </v>
   <v>      -0.32619021       0.22470106       0.44805584 </v>
   <v>      -0.13917251       0.42927163       0.47349079 </v>
   <v>      -0.36027033       0.43237464       0.45807714 </v>
   <v>      -0.14350528       0.49396660      -0.48079881 </v>
   <v>      -0.43061721       0.34566803      -0.46869640 </v>
   <v>      -0.41581924       0.35532674       0.47901336 </v>
   <v>      -0.44828807       0.32676038       0.44731080 </v>
   <v>      -0.19211366       0.39949330       0.45845446 </v>
   <v>      -0.34417167       0.28415212       0.47452158 </v>
   <v>      -0.38458253       0.29296802       0.47408880 </v>
   <v>      -0.20753671       0.35999191       0.45500540 </v>
   <v>      -0.22332959       0.42939688      -0.46901863 </v>
   <v>      -0.37148225       0.34390548       0.47477721 </v>
   <v>      -0.32241721       0.38427592       0.47436726 </v>
   <v>      -0.22908636       0.41528040       0.47829900 </v>
   <v>      -0.22571171       0.44815840       0.44781225 </v>
   <v>      -0.29329649       0.32183475       0.47440563 </v>
   <v>      -0.28467242       0.37099390       0.47464145 </v>
  </varray>
 </structure>
 <varray name="primitive_index" >
  <v type="int" >        1 </v>
  <v type="int" >       17 </v>
  <v type="int" >       16 </v>
  <v type="int" >       75 </v>
  <v type="int" >        3 </v>
  <v type="int" >        2 </v>
  <v type="int" >       20 </v>
  <v type="int" >       47 </v>
  <v type="int" >       90 </v>
  <v type="int" >        8 </v>
  <v type="int" >       18 </v>
  <v type="int" >       66 </v>
  <v type="int" >       64 </v>
  <v type="int" >       88 </v>
  <v type="int" >       10 </v>
  <v type="int" >       81 </v>
  <v type="int" >       32 </v>
  <v type="int" >       19 </v>
  <v type="int" >       71 </v>
  <v type="int" >       87 </v>
  <v type="int" >       65 </v>
  <v type="int" >       89 </v>
  <v type="int" >       31 </v>
  <v type="int" >      101 </v>
  <v type="int" >       39 </v>
  <v type="int" >       12 </v>
  <v type="int" >       96 </v>
  <v type="int" >       52 </v>
  <v type="int" >       57 </v>
  <v type="int" >       38 </v>
  <v type="int" >       77 </v>
  <v type="int" >       30 </v>
  <v type="int" >       46 </v>
  <v type="int" >       53 </v>
  <v type="int" >       58 </v>
  <v type="int" >       83 </v>
  <v type="int" >       70 </v>
  <v type="int" >      106 </v>
  <v type="int" >       29 </v>
  <v type="int" >       45 </v>
  <v type="int" >       62 </v>
  <v type="int" >       97 </v>
  <v type="int" >      102 </v>
  <v type="int" >       37 </v>
  <v type="int" >       36 </v>
  <v type="int" >       74 </v>
  <v type="int" >       76 </v>
  <v type="int" >       28 </v>
  <v type="int" >       44 </v>
  <v type="int" >       63 </v>
  <v type="int" >        7 </v>
  <v type="int" >       94 </v>
  <v type="int" >       99 </v>
  <v type="int" >       35 </v>
  <v type="int" >       43 </v>
  <v type="int" >       82 </v>
  <v type="int" >       27 </v>
  <v type="int" >       80 </v>
  <v type="int" >       50 </v>
  <v type="int" >      107 </v>
  <v type="int" >       55 </v>
  <v type="int" >       73 </v>
  <v type="int" >        9 </v>
  <v type="int" >       34 </v>
  <v type="int" >       86 </v>
  <v type="int" >       26 </v>
  <v type="int" >       51 </v>
  <v type="int" >       42 </v>
  <v type="int" >      104 </v>
  <v type="int" >       79 </v>
  <v type="int" >       56 </v>
  <v type="int" >       11 </v>
  <v type="int" >       49 </v>
  <v type="int" >       72 </v>
  <v type="int" >       95 </v>
  <v type="int" >       60 </v>
  <v type="int" >       33 </v>
  <v type="int" >      100 </v>
  <v type="int" >       41 </v>
  <v type="int" >       54 </v>
  <v type="int" >       85 </v>
  <v type="int" >       78 </v>
  <v type="int" >       13 </v>
  <v type="int" >       61 </v>
  <v type="int" >       40 </v>
  <v type="int" >       98 </v>
  <v type="int" >       14 </v>
  <v type="int" >       67 </v>
  <v type="int" >      105 </v>
  <v type="int" >       48 </v>
  <v type="int" >       91 </v>
  <v type="int" >       59 </v>
  <v type="int" >      103 </v>
  <v type="int" >       84 </v>
  <v type="int" >       69 </v>
  <v type="int" >       25 </v>
  <v type="int" >       93 </v>
  <v type="int" >       15 </v>
  <v type="int" >       22 </v>
  <v type="int" >        4 </v>
  <v type="int" >      108 </v>
  <v type="int" >       68 </v>
  <v type="int" >       21 </v>
  <v type="int" >        6 </v>
  <v type="int" >       24 </v>
  <v type="int" >       92 </v>
  <v type="int" >        5 </v>
  <v type="int" >       23 </v>
 </varray>
 <kpoints>
  <generation param="listgenerated">
   <i name="divisions" type="int">      20 </i>
   <v>       0.00000000       0.00000000       0.00000000 </v>
   <v>       0.50000000       0.00000000       0.00000000 </v>
   <v>       0.33333333       0.33333333       0.00000000 </v>
   <v>       0.00000000       0.00000000       0.00000000 </v>
  </generation>
  <varray name="kpointlist" >
   <v>       0.00000000       0.00000000       0.00000000 </v>
   <v>       0.02631579       0.00000000       0.00000000 </v>
   <v>       0.05263158       0.00000000       0.00000000 </v>
   <v>       0.07894737       0.00000000       0.00000000 </v>
   <v>       0.10526316       0.00000000       0.00000000 </v>
   <v>       0.13157895       0.00000000       0.00000000 </v>
   <v>       0.15789474       0.00000000       0.00000000 </v>
   <v>       0.18421053       0.00000000       0.00000000 </v>
   <v>       0.21052632       0.00000000       0.00000000 </v>
   <v>       0.23684211       0.00000000       0.00000000 </v>
   <v>       0.26315789       0.00000000       0.00000000 </v>
   <v>       0.28947368       0.00000000       0.00000000 </v>
   <v>       0.31578947       0.00000000       0.00000000 </v>
   <v>       0.34210526       0.00000000       0.00000000 </v>
   <v>       0.36842105       0.00000000       0.00000000 </v>
   <v>       0.39473684       0.00000000       0.00000000 </v>
   <v>       0.42105263       0.00000000       0.00000000 </v>
   <v>       0.44736842       0.00000000       0.00000000 </v>
   <v>       0.47368421       0.00000000       0.00000000 </v>
   <v>       0.50000000       0.00000000       0.00000000 </v>
   <v>       0.50000000       0.00000000       0.00000000 </v>
   <v>       0.49122807       0.01754386       0.00000000 </v>
   <v>       0.48245614       0.03508772       0.00000000 </v>
   <v>       0.47368421       0.05263158       0.00000000 </v>
   <v>       0.46491228       0.07017544       0.00000000 </v>
   <v>       0.45614035       0.08771930       0.00000000 </v>
   <v>       0.44736842       0.10526316       0.00000000 </v>
   <v>       0.43859649       0.12280702       0.00000000 </v>
   <v>       0.42982456       0.14035088       0.00000000 </v>
   <v>       0.42105263       0.15789474       0.00000000 </v>
   <v>       0.41228070       0.17543860       0.00000000 </v>
   <v>       0.40350877       0.19298246       0.00000000 </v>
   <v>       0.39473684       0.21052632       0.00000000 </v>
   <v>       0.38596491       0.22807018       0.00000000 </v>
   <v>       0.37719298       0.24561404       0.00000000 </v>
   <v>       0.36842105       0.26315789       0.00000000 </v>
   <v>       0.35964912       0.28070175       0.00000000 </v>
   <v>       0.35087719       0.29824561       0.00000000 </v>
   <v>       0.34210526       0.31578947       0.00000000 </v>
   <v>       0.33333333       0.33333333       0.00000000 </v>
   <v>       0.33333333       0.33333333       0.00000000 </v>
   <v>       0.31578947       0.31578947       0.00000000 </v>
   <v>       0.29824561       0.29824561       0.00000000 </v>
   <v>       0.28070175       0.28070175       0.00000000 </v>
   <v>       0.26315789       0.26315789       0.00000000 </v>
   <v>       0.24561404       0.24561404       0.00000000 </v>
   <v>       0.22807018       0.22807018       0.00000000 </v>
   <v>       0.21052632       0.21052632       0.00000000 </v>
   <v>       0.19298246       0.19298246       0.00000000 </v>
   <v>       0.17543860       0.17543860       0.00000000 </v>
   <v>       0.15789474       0.15789474       0.00000000 </v>
   <v>       0.14035088       0.14035088       0.00000000 </v>
   <v>       0.12280702       0.12280702       0.00000000 </v>
   <v>       0.10526316       0.10526316       0.00000000 </v>
   <v>       0.08771930       0.08771930       0.00000000 </v>
   <v>       0.07017544       0.07017544       0.00000000 </v>
   <v>       0.05263158       0.05263158       0.00000000 </v>
   <v>       0.03508772       0.03508772       0.00000000 </v>
   <v>       0.01754386       0.01754386       0.00000000 </v>
   <v>       0.00000000       0.00000000       0.00000000 </v>
  </varray>
  <varray name="weights" >
   <v>       0.01666667 </v>
   <v>       0.01666667 </v>
   <v>       0.01666667 </v>
   <v>       0.01666667 </v>
   <v>       0.01666667 </v>
   <v>       0.01666667 </v>
   <v>       0.01666667 </v>
   <v>       0.01666667 </v>
   <v>       0.01666667 </v>
   <v>       0.01666667 </v>
   <v>       0.01666667 </v>
   <v>       0.01666667 </v>
   <v>       0.01666667 </v>
   <v>       0.01666667 </v>
   <v>       0.01666667 </v>
   <v>       0.01666667 </v>
   <v>       0.01666667 </v>
   <v>       0.01666667 </v>
   <v>       0.01666667 </v>
   <v>       0.01666667 </v>
   <v>       0.01666667 </v>
   <v>       0.01666667 </v>
   <v>       0.01666667 </v>
   <v>       0.01666667 </v>
   <v>       0.01666667 </v>
   <v>       0.01666667 </v>
   <v>       0.01666667 </v>
   <v>       0.01666667 </v>
   <v>       0.01666667 </v>
   <v>       0.01666667 </v>
   <v>       0.01666667 </v>
   <v>       0.01666667 </v>
   <v>       0.01666667 </v>
   <v>       0.01666667 </v>
   <v>       0.01666667 </v>
   <v>       0.01666667 </v>
   <v>       0.01666667 </v>
   <v>       0.01666667 </v>
   <v>       0.01666667 </v>
   <v>       0.01666667 </v>
   <v>       0.01666667 </v>
   <v>       0.01666667 </v>
   <v>       0.01666667 </v>
   <v>       0.01666667 </v>
   <v>       0.01666667 </v>
   <v>       0.01666667 </v>
   <v>       0.01666667 </v>
   <v>       0.01666667 </v>
   <v>       0.01666667 </v>
   <v>       0.01666667 </v>
   <v>       0.01666667 </v>
   <v>       0.01666667 </v>
   <v>       0.01666667 </v>
   <v>       0.01666667 </v>
   <v>       0.01666667 </v>
   <v>       0.01666667 </v>
   <v>       0.01666667 </v>
   <v>       0.01666667 </v>
   <v>       0.01666667 </v>
   <v>       0.01666667 </v>
  </varray>
 </kpoints>
 <parameters>
  <separator name="general" >
   <i type="string" name="SYSTEM">Simulation for cell shape cell volume r</i>
   <i type="logical" name="LCOMPAT"> F  </i>
  </separator>
  <separator name="electronic" >
   <i type="string" name="PREC">high</i>
   <i name="ENMAX">    500.00000000</i>
   <i name="ENAUG">    644.87300000</i>
   <i name="EDIFF">      0.00001000</i>
   <i type="int" name="IALGO">    38</i>
   <i type="int" name="IWAVPR">    10</i>
   <i type="int" name="NBANDS">   224</i>
   <i name="NELECT">    312.00000000</i>
   <i type="int" name="TURBO">     0</i>
   <i type="int" name="IRESTART">     0</i>
   <i type="int" name="NREBOOT">     0</i>
   <i type="int" name="NMIN">     0</i>
   <i name="EREF">      0.00000000</i>
   <separator name="electronic smearing" >
    <i type="int" name="ISMEAR">     0</i>
    <i name="SIGMA">      0.01000000</i>
    <i name="KSPACING">      0.50000000</i>
    <i type="logical" name="KGAMMA"> T  </i>
   </separator>
   <separator name="electronic projectors" >
    <i type="logical" name="LREAL"> T  </i>
    <v name="ROPT">     -0.00040000     -0.00040000     -0.00040000</v>
    <i type="int" name="LMAXPAW">  -100</i>
    <i type="int" name="LMAXMIX">     2</i>
    <i type="logical" name="NLSPLINE"> F  </i>
   </separator>
   <separator name="electronic startup" >
    <i type="int" name="ISTART">     1</i>
    <i type="int" name="ICHARG">    11</i>
    <i type="int" name="INIWAV">     1</i>
   </separator>
   <separator name="electronic spin" >
    <i type="int" name="ISPIN">     1</i>
    <i type="logical" name="LNONCOLLINEAR"> F  </i>
    <v name="MAGMOM">      1.00000000      1.00000000      1.00000000      1.00000000      1.00000000      1.00000000      1.00000000      1.00000000      1.00000000      1.00000000      1.00000000      1.00000000      1.00000000      1.00000000      1.00000000      1.00000000      1.00000000      1.00000000      1.00000000      1.00000000
      1.00000000      1.00000000      1.00000000      1.00000000      1.00000000      1.00000000      1.00000000      1.00000000      1.00000000      1.00000000      1.00000000      1.00000000      1.00000000      1.00000000      1.00000000      1.00000000      1.00000000      1.00000000      1.00000000      1.00000000
      1.00000000      1.00000000      1.00000000      1.00000000      1.00000000      1.00000000      1.00000000      1.00000000      1.00000000      1.00000000      1.00000000      1.00000000      1.00000000      1.00000000      1.00000000      1.00000000      1.00000000      1.00000000      1.00000000      1.00000000
      1.00000000      1.00000000      1.00000000      1.00000000      1.00000000      1.00000000      1.00000000      1.00000000      1.00000000      1.00000000      1.00000000      1.00000000      1.00000000      1.00000000      1.00000000      1.00000000      1.00000000      1.00000000      1.00000000      1.00000000
      1.00000000      1.00000000      1.00000000      1.00000000      1.00000000      1.00000000      1.00000000      1.00000000      1.00000000      1.00000000      1.00000000      1.00000000      1.00000000      1.00000000      1.00000000      1.00000000      1.00000000      1.00000000      1.00000000      1.00000000
      1.00000000      1.00000000      1.00000000      1.00000000      1.00000000      1.00000000      1.00000000      1.00000000</v>
    <i name="NUPDOWN">     -1.00000000</i>
    <i type="logical" name="LSORBIT"> F  </i>
    <v name="SAXIS">      0.00000000      0.00000000      1.00000000</v>
    <i type="logical" name="LSPIRAL"> F  </i>
    <v name="QSPIRAL">      0.00000000      0.00000000      0.00000000</v>
    <i type="logical" name="LZEROZ"> F  </i>
   </separator>
   <separator name="electronic exchange-correlation" >
    <i type="logical" name="LASPH"> F  </i>
    <i type="logical" name="LMETAGGA"> F  </i>
   </separator>
   <separator name="electronic convergence" >
    <i type="int" name="NELM">   200</i>
    <i type="int" name="NELMDL">     0</i>
    <i type="int" name="NELMIN">     2</i>
    <i name="ENINI">    500.00000000</i>
    <separator name="electronic convergence detail" >
     <i type="logical" name="LDIAG"> T  </i>
     <i type="logical" name="LSUBROT"> F  </i>
     <i name="WEIMIN">      0.00000000</i>
     <i name="EBREAK">      0.00000001</i>
     <i name="DEPER">      0.30000000</i>
     <i type="int" name="NRMM">     4</i>
     <i name="TIME">      0.40000000</i>
    </separator>
   </separator>
   <separator name="electronic mixer" >
    <i name="AMIX">      0.40000000</i>
    <i name="BMIX">      1.00000000</i>
    <i name="AMIN">      0.10000000</i>
    <i name="AMIX_MAG">      1.60000000</i>
    <i name="BMIX_MAG">      1.00000000</i>
    <separator name="electronic mixer details" >
     <i type="int" name="IMIX">     4</i>
     <i type="logical" name="MIXFIRST"> F  </i>
     <i type="int" name="MAXMIX">   -45</i>
     <i name="WC">    100.00000000</i>
     <i type="int" name="INIMIX">     1</i>
     <i type="int" name="MIXPRE">     1</i>
     <i type="int" name="MREMOVE">     5</i>
    </separator>
   </separator>
   <separator name="electronic dipolcorrection" >
    <i type="logical" name="LDIPOL"> F  </i>
    <i type="logical" name="LMONO"> F  </i>
    <i type="int" name="IDIPOL">     0</i>
    <i name="EPSILON">      1.00000000</i>
    <v name="DIPOL">   -100.00000000   -100.00000000   -100.00000000</v>
    <i name="EFIELD">      0.00000000</i>
   </separator>
  </separator>
  <separator name="grids" >
   <i type="int" name="NGX">   216</i>
   <i type="int" name="NGY">   216</i>
   <i type="int" name="NGZ">   150</i>
   <i type="int" name="NGXF">   324</i>
   <i type="int" name="NGYF">   324</i>
   <i type="int" name="NGZF">   224</i>
   <i type="logical" name="ADDGRID"> F  </i>
  </separator>
  <separator name="ionic" >
   <i type="int" name="NSW">     0</i>
   <i type="int" name="IBRION">    -1</i>
   <i type="int" name="MDALGO">     0</i>
   <i type="int" name="ISIF">     2</i>
   <i name="PSTRESS">      0.00000000</i>
   <i name="EDIFFG">     -0.01000000</i>
   <i type="int" name="NFREE">     0</i>
   <i name="POTIM">      0.30000000</i>
   <i name="SMASS">     -3.00000000</i>
   <i name="SCALEE">      1.00000000</i>
  </separator>
  <separator name="ionic md" >
   <i name="TEBEG">      0.00010000</i>
   <i name="TEEND">      0.00010000</i>
   <i type="int" name="NBLOCK">     1</i>
   <i type="int" name="KBLOCK">     1</i>
   <i type="int" name="NPACO">   256</i>
   <i name="APACO">     16.00000000</i>
  </separator>
  <separator name="symmetry" >
   <i type="int" name="ISYM">     2</i>
   <i name="SYMPREC">      0.00001000</i>
  </separator>
  <separator name="dos" >
   <i type="int" name="LORBIT">     0</i>
   <v name="RWIGS">     -1.00000000     -1.00000000     -1.00000000</v>
   <i type="int" name="NEDOS">   301</i>
   <i name="EMIN">     10.00000000</i>
   <i name="EMAX">    -10.00000000</i>
   <i name="EFERMI">      0.00000000</i>
  </separator>
  <separator name="writing" >
   <i type="int" name="NWRITE">     0</i>
   <i type="logical" name="LWAVE"> F  </i>
   <i type="logical" name="LDOWNSAMPLE"> F  </i>
   <i type="logical" name="LCHARG"> F  </i>
   <i type="logical" name="LPARD"> F  </i>
   <i type="logical" name="LVTOT"> F  </i>
   <i type="logical" name="LVHAR"> F  </i>
   <i type="logical" name="LELF"> F  </i>
   <i type="logical" name="LOPTICS"> F  </i>
   <v name="STM">      0.00000000      0.00000000      0.00000000      0.00000000      0.00000000      0.00000000      0.00000000</v>
  </separator>
  <separator name="performance" >
   <i type="int" name="NPAR">    16</i>
   <i type="int" name="NSIM">     4</i>
   <i type="int" name="NBLK">    -1</i>
   <i type="logical" name="LPLANE"> T  </i>
   <i type="logical" name="LSCALAPACK"> T  </i>
   <i type="logical" name="LSCAAWARE"> F  </i>
   <i type="logical" name="LSCALU"> F  </i>
   <i type="logical" name="LASYNC"> F  </i>
   <i type="logical" name="LORBITALREAL"> F  </i>
  </separator>
  <separator name="miscellaneous" >
   <i type="int" name="IDIOT">     3</i>
   <i type="int" name="ISPECIAL">     0</i>
   <i type="logical" name="LMUSIC"> F  </i>
   <v name="POMASS">     14.00100000     12.01100000      1.00000000</v>
   <v name="DARWINR">      0.00000000      0.00000000      0.00000000</v>
   <v name="DARWINV">      1.00000000      1.00000000      1.00000000</v>
   <i type="logical" name="LCORR"> T  </i>
  </separator>
  <i type="logical" name="GGA_COMPAT"> T  </i>
  <i type="logical" name="LBERRY"> F  </i>
  <i type="int" name="ICORELEVEL">     0</i>
  <i type="logical" name="LDAU"> F  </i>
  <i type="int" name="I_CONSTRAINED_M">     0</i>
  <separator name="electronic exchange-correlation" >
   <i type="string" name="GGA">PE</i>
   <i type="int" name="VOSKOWN">     0</i>
   <i type="logical" name="LHFCALC"> F  </i>
   <i type="string" name="PRECFOCK"></i>
   <i type="logical" name="LSYMGRAD"> F  </i>
   <i type="logical" name="LHFONE"> F  </i>
   <i type="logical" name="LRHFCALC"> F  </i>
   <i type="logical" name="LTHOMAS"> F  </i>
   <i type="logical" name="LMODELHF"> F  </i>
   <i name="ENCUT4O">     -1.00000000</i>
   <i type="int" name="EXXOEP">     0</i>
   <i type="int" name="FOURORBIT">     0</i>
   <i name="AEXX">      0.00000000</i>
   <i name="HFALPHA">      0.00000000</i>
   <i name="MCALPHA">      0.00000000</i>
   <i name="ALDAX">      1.00000000</i>
   <i name="AGGAX">      1.00000000</i>
   <i name="ALDAC">      1.00000000</i>
   <i name="AGGAC">      1.00000000</i>
   <i type="int" name="NKREDX">     1</i>
   <i type="int" name="NKREDY">     1</i>
   <i type="int" name="NKREDZ">     1</i>
   <i type="logical" name="SHIFTRED"> F  </i>
   <i type="logical" name="ODDONLY"> F  </i>
   <i type="logical" name="EVENONLY"> F  </i>
   <i type="int" name="LMAXFOCK">     0</i>
   <i type="int" name="NMAXFOCKAE">     0</i>
   <i type="logical" name="LFOCKAEDFT"> F  </i>
   <i name="HFSCREEN">      0.00000000</i>
   <i name="HFSCREENC">      0.00000000</i>
   <i type="int" name="NBANDSGWLOW">     0</i>
  </separator>
  <separator name="vdW DFT" >
   <i type="logical" name="LUSE_VDW"> F  </i>
   <i name="Zab_VDW">     -0.84910000</i>
   <i name="PARAM1">      0.12340000</i>
   <i name="PARAM2">      1.00000000</i>
   <i name="PARAM3">      0.00000000</i>
  </separator>
  <separator name="model GW" >
   <i type="int" name="MODEL_GW">     0</i>
   <i name="MODEL_EPS0">     83.27709195</i>
   <i name="MODEL_ALPHA">      1.00000000</i>
  </separator>
  <separator name="linear response parameters" >
   <i type="logical" name="LEPSILON"> F  </i>
   <i type="logical" name="LRPA"> F  </i>
   <i type="logical" name="LNABLA"> F  </i>
   <i type="logical" name="LVEL"> F  </i>
   <i type="int" name="KINTER">     0</i>
   <i name="CSHIFT">      0.10000000</i>
   <i name="OMEGAMAX">     -1.00000000</i>
   <i name="DEG_THRESHOLD">      0.00200000</i>
   <i name="RTIME">     -0.10000000</i>
   <i name="WPLASMAI">      0.00000000</i>
   <v name="DFIELD">      0.00000000      0.00000000      0.00000000</v>
   <v name="WPLASMA">      0.00000000      0.00000000      0.00000000      0.00000000      0.00000000      0.00000000      0.00000000      0.00000000      0.00000000</v>
  </separator>
  <separator name="orbital magnetization" >
   <i type="logical" name="NUCIND"> F  </i>
   <v name="MAGPOS">      0.00000000      0.00000000      0.00000000</v>
   <i type="logical" name="LNICSALL"> T  </i>
   <i type="logical" name="ORBITALMAG"> F  </i>
   <i type="logical" name="LMAGBLOCH"> F  </i>
   <i type="logical" name="LCHIMAG"> F  </i>
   <i type="logical" name="LGAUGE"> T  </i>
   <i type="int" name="MAGATOM">     0</i>
   <v name="MAGDIPOL">      0.00000000      0.00000000      0.00000000</v>
   <v name="AVECCONST">      0.00000000      0.00000000      0.00000000</v>
  </separator>
  <separator name="response functions" >
   <i type="logical" name="LADDER"> F  </i>
   <i type="logical" name="LRPAFORCE"> F  </i>
   <i type="logical" name="LFXC"> F  </i>
   <i type="logical" name="LHARTREE"> T  </i>
   <i type="int" name="IBSE">     0</i>
   <v type="int" name="KPOINT">    -1     0     0     0</v>
   <i type="logical" name="LTCTE"> F  </i>
   <i type="logical" name="LTETE"> F  </i>
   <i type="logical" name="LTRIPLET"> F  </i>
   <i type="logical" name="LFXCEPS"> F  </i>
   <i type="logical" name="LFXHEG"> F  </i>
   <i type="int" name="NATURALO">     2</i>
   <i type="logical" name="L2ORDER"> F  </i>
   <i type="logical" name="LMP2LT"> F  </i>
   <i type="logical" name="LUSEW"> F  </i>
   <i name="ENCUTGW">     -2.00000000</i>
   <i name="ENCUTGWSOFT">     -2.00000000</i>
   <i name="ENCUTLF">     -1.00000000</i>
   <i type="int" name="LMAXMP2">    -1</i>
   <i name="SCISSOR">      0.00000000</i>
   <i type="int" name="NOMEGA">     0</i>
   <i type="int" name="NOMEGAR">     0</i>
   <i type="int" name="NBANDSGW">    -1</i>
   <i type="int" name="NBANDSO">    -1</i>
   <i type="int" name="NBANDSV">    -1</i>
   <i type="int" name="NELM">   200</i>
   <i type="int" name="NELMHF">     1</i>
   <i type="int" name="DIM">     3</i>
   <i type="int" name="ANTIRES">     0</i>
   <i name="OMEGAMAX">    -30.00000000</i>
   <i name="OMEGAMIN">    -30.00000000</i>
   <i name="OMEGATL">   -200.00000000</i>
   <i type="int" name="OMEGAGRID">   140</i>
   <i name="CSHIFT">     -0.10000000</i>
   <i type="logical" name="SELFENERGY"> F  </i>
   <i type="logical" name="LSPECTRAL"> F  </i>
   <i type="logical" name="LSPECTRALGW"> F  </i>
   <i type="logical" name="LSINGLES"> F  </i>
   <i type="logical" name="LFERMIGW"> F  </i>
   <i type="logical" name="ODDONLYGW"> F  </i>
   <i type="logical" name="EVENONLYGW"> F  </i>
   <i type="int" name="NKREDLFX">     1</i>
   <i type="int" name="NKREDLFY">     1</i>
   <i type="int" name="NKREDLFZ">     1</i>
   <i type="int" name="MAXMEM">  2800</i>
   <i type="int" name="TELESCOPE">     0</i>
   <i type="int" name="TAUPAR">     1</i>
   <i type="int" name="OMEGAPAR">    -1</i>
   <i name="LAMBDA">      1.00000000</i>
  </separator>
  <separator name="External order field" >
   <i name="OFIELD_KAPPA">      0.00000000</i>
   <v name="OFIELD_K">      0.00000000      0.00000000      0.00000000</v>
   <i name="OFIELD_Q6_NEAR">      0.00000000</i>
   <i name="OFIELD_Q6_FAR">      0.00000000</i>
   <i name="OFIELD_A">      0.00000000</i>
  </separator>
  <separator name="solvation model" >
   <i type="logical" name="LSOL"> F  </i>
  </separator>
 </parameters>
 <atominfo>
  <atoms>     108 </atoms>
  <types>       3 </types>
  <array name="atoms" >
   <dimension dim="1">ion</dimension>
   <field type="string">element</field>
   <field type="int">atomtype</field>
   <set>
    <rc><c>N </c><c>   1</c></rc>
    <rc><c>N </c><c>   1</c></rc>
    <rc><c>N </c><c>   1</c></rc>
    <rc><c>N </c><c>   1</c></rc>
    <rc><c>N </c><c>   1</c></rc>
    <rc><c>N </c><c>   1</c></rc>
    <rc><c>N </c><c>   1</c></rc>
    <rc><c>N </c><c>   1</c></rc>
    <rc><c>N </c><c>   1</c></rc>
    <rc><c>N </c><c>   1</c></rc>
    <rc><c>N </c><c>   1</c></rc>
    <rc><c>N </c><c>   1</c></rc>
    <rc><c>N </c><c>   1</c></rc>
    <rc><c>N </c><c>   1</c></rc>
    <rc><c>N </c><c>   1</c></rc>
    <rc><c>C </c><c>   2</c></rc>
    <rc><c>C </c><c>   2</c></rc>
    <rc><c>C </c><c>   2</c></rc>
    <rc><c>C </c><c>   2</c></rc>
    <rc><c>C </c><c>   2</c></rc>
    <rc><c>C </c><c>   2</c></rc>
    <rc><c>C </c><c>   2</c></rc>
    <rc><c>C </c><c>   2</c></rc>
    <rc><c>C </c><c>   2</c></rc>
    <rc><c>C </c><c>   2</c></rc>
    <rc><c>C </c><c>   2</c></rc>
    <rc><c>C </c><c>   2</c></rc>
    <rc><c>C </c><c>   2</c></rc>
    <rc><c>C </c><c>   2</c></rc>
    <rc><c>C </c><c>   2</c></rc>
    <rc><c>C </c><c>   2</c></rc>
    <rc><c>C </c><c>   2</c></rc>
    <rc><c>C </c><c>   2</c></rc>
    <rc><c>C </c><c>   2</c></rc>
    <rc><c>C </c><c>   2</c></rc>
    <rc><c>C </c><c>   2</c></rc>
    <rc><c>C </c><c>   2</c></rc>
    <rc><c>C </c><c>   2</c></rc>
    <rc><c>C </c><c>   2</c></rc>
    <rc><c>C </c><c>   2</c></rc>
    <rc><c>C </c><c>   2</c></rc>
    <rc><c>C </c><c>   2</c></rc>
    <rc><c>C </c><c>   2</c></rc>
    <rc><c>C </c><c>   2</c></rc>
    <rc><c>C </c><c>   2</c></rc>
    <rc><c>C </c><c>   2</c></rc>
    <rc><c>C </c><c>   2</c></rc>
    <rc><c>C </c><c>   2</c></rc>
    <rc><c>C </c><c>   2</c></rc>
    <rc><c>C </c><c>   2</c></rc>
    <rc><c>C </c><c>   2</c></rc>
    <rc><c>C </c><c>   2</c></rc>
    <rc><c>C </c><c>   2</c></rc>
    <rc><c>C </c><c>   2</c></rc>
    <rc><c>C </c><c>   2</c></rc>
    <rc><c>C </c><c>   2</c></rc>
    <rc><c>C </c><c>   2</c></rc>
    <rc><c>C </c><c>   2</c></rc>
    <rc><c>C </c><c>   2</c></rc>
    <rc><c>C </c><c>   2</c></rc>
    <rc><c>C </c><c>   2</c></rc>
    <rc><c>C </c><c>   2</c></rc>
    <rc><c>C </c><c>   2</c></rc>
    <rc><c>H </c><c>   3</c></rc>
    <rc><c>H </c><c>   3</c></rc>
    <rc><c>H </c><c>   3</c></rc>
    <rc><c>H </c><c>   3</c></rc>
    <rc><c>H </c><c>   3</c></rc>
    <rc><c>H </c><c>   3</c></rc>
    <rc><c>H </c><c>   3</c></rc>
    <rc><c>H </c><c>   3</c></rc>
    <rc><c>H </c><c>   3</c></rc>
    <rc><c>H </c><c>   3</c></rc>
    <rc><c>H </c><c>   3</c></rc>
    <rc><c>H </c><c>   3</c></rc>
    <rc><c>H </c><c>   3</c></rc>
    <rc><c>H </c><c>   3</c></rc>
    <rc><c>H </c><c>   3</c></rc>
    <rc><c>H </c><c>   3</c></rc>
    <rc><c>H </c><c>   3</c></rc>
    <rc><c>H </c><c>   3</c></rc>
    <rc><c>H </c><c>   3</c></rc>
    <rc><c>H </c><c>   3</c></rc>
    <rc><c>H </c><c>   3</c></rc>
    <rc><c>H </c><c>   3</c></rc>
    <rc><c>H </c><c>   3</c></rc>
    <rc><c>H </c><c>   3</c></rc>
    <rc><c>H </c><c>   3</c></rc>
    <rc><c>H </c><c>   3</c></rc>
    <rc><c>H </c><c>   3</c></rc>
    <rc><c>H </c><c>   3</c></rc>
    <rc><c>H </c><c>   3</c></rc>
    <rc><c>H </c><c>   3</c></rc>
    <rc><c>H </c><c>   3</c></rc>
    <rc><c>H </c><c>   3</c></rc>
    <rc><c>H </c><c>   3</c></rc>
    <rc><c>H </c><c>   3</c></rc>
    <rc><c>H </c><c>   3</c></rc>
    <rc><c>H </c><c>   3</c></rc>
    <rc><c>H </c><c>   3</c></rc>
    <rc><c>H </c><c>   3</c></rc>
    <rc><c>H </c><c>   3</c></rc>
    <rc><c>H </c><c>   3</c></rc>
    <rc><c>H </c><c>   3</c></rc>
    <rc><c>H </c><c>   3</c></rc>
    <rc><c>H </c><c>   3</c></rc>
    <rc><c>H </c><c>   3</c></rc>
    <rc><c>H </c><c>   3</c></rc>
   </set>
  </array>
  <array name="atomtypes" >
   <dimension dim="1">type</dimension>
   <field type="int">atomspertype</field>
   <field type="string">element</field>
   <field>mass</field>
   <field>valence</field>
   <field type="string">pseudopotential</field>
   <set>
    <rc><c>  15</c><c>N </c><c>     14.00100000</c><c>      5.00000000</c><c>  PAW_PBE N 08Apr2002                   </c></rc>
    <rc><c>  48</c><c>C </c><c>     12.01100000</c><c>      4.00000000</c><c>  PAW_PBE C 08Apr2002                   </c></rc>
    <rc><c>  45</c><c>H </c><c>      1.00000000</c><c>      1.00000000</c><c>  PAW_PBE H 15Jun2001                   </c></rc>
   </set>
  </array>
 </atominfo>
 <structure name="initialpos" >
  <crystal>
   <varray name="basis" >
    <v>      29.40898826       0.04859794       0.00000000 </v>
    <v>     -14.66202610      25.46096712       0.00000000 </v>
    <v>       0.00000000       0.00000000      20.00000000 </v>
   </varray>
   <i name="volume">  14989.87655117 </i>
   <varray name="rec_basis" >
    <v>       0.03397088       0.01956257       0.00000000 </v>
    <v>      -0.00006484       0.03923847       0.00000000 </v>
    <v>       0.00000000       0.00000000       0.05000000 </v>
   </varray>
  </crystal>
  <varray name="positions" >
   <v>       0.38405012       0.70461726       0.54385057 </v>
   <v>       0.29397387       0.68065661       0.54399008 </v>
   <v>       0.31815243       0.61453435       0.54441748 </v>
   <v>       0.61541747       0.29296802       0.47408880 </v>
   <v>       0.70670351       0.32183475       0.47440563 </v>
   <v>       0.67758279       0.38427592       0.47436726 </v>
   <v>       0.60128406       0.04474378       0.55244241 </v>
   <v>       0.41552345       0.80671873       0.53857764 </v>
   <v>       0.44121845       0.39641573       0.54960379 </v>
   <v>       0.38865120       0.58264594       0.54040566 </v>
   <v>       0.95342701       0.55648693       0.55212624 </v>
   <v>       0.19174734       0.61007557       0.54303173 </v>
   <v>       0.59176125       0.19169813       0.45822985 </v>
   <v>       0.60027309       0.40851306       0.46139597 </v>
   <v>       0.80788634       0.39949330       0.45845446 </v>
   <v>       0.36811516       0.65292873       0.54420946 </v>
   <v>       0.34557095       0.71625724       0.54376318 </v>
   <v>       0.28247087       0.63060374       0.54470119 </v>
   <v>       0.22581029       0.58833420       0.54602507 </v>
   <v>       0.41037693       0.63832449       0.54450772 </v>
   <v>       0.62851775       0.34390548       0.47477721 </v>
   <v>       0.65582833       0.28415212       0.47452158 </v>
   <v>       0.71532758       0.37099390       0.47464145 </v>
   <v>       0.77091364       0.41528040       0.47829900 </v>
   <v>       0.58418076       0.35532674       0.47901336 </v>
   <v>       0.59575901       0.11703213       0.50476947 </v>
   <v>       0.57186760       0.06310250       0.51905378 </v>
   <v>       0.51933655       0.02873185       0.49894593 </v>
   <v>       0.49266564       0.97141024       0.51006182 </v>
   <v>       0.51782813       0.94189062       0.49807044 </v>
   <v>       0.49227390       0.88792034       0.50723813 </v>
   <v>       0.43951415       0.86016449       0.52826882 </v>
   <v>       0.52033617       0.40321034       0.50487737 </v>
   <v>       0.48971444       0.42668283       0.51846978 </v>
   <v>       0.50803356       0.47967374       0.49998178 </v>
   <v>       0.47705107       0.50612238       0.51093408 </v>
   <v>       0.42268204       0.48108809       0.49778604 </v>
   <v>       0.39398857       0.50643613       0.50722736 </v>
   <v>       0.41839095       0.55887135       0.52963766 </v>
   <v>       0.88186784       0.47839095       0.50465281 </v>
   <v>       0.93566365       0.50870052       0.51910917 </v>
   <v>       0.97049528       0.49079226       0.49957219 </v>
   <v>       0.02764979       0.52166355       0.51131101 </v>
   <v>       0.05668077       0.57628635       0.49956924 </v>
   <v>       0.11046271       0.60497503       0.50974381 </v>
   <v>       0.13849067       0.58032146       0.53153423 </v>
   <v>       0.35998494       0.77305621       0.54353442 </v>
   <v>       0.64438863       0.22838345       0.47830042 </v>
   <v>       0.56826053       0.13865944       0.47329851 </v>
   <v>       0.49255239       0.05159179       0.46790245 </v>
   <v>       0.51541317       0.10495530       0.45542247 </v>
   <v>       0.41349805       0.88889624       0.53899412 </v>
   <v>       0.43995946       0.94320759       0.53059079 </v>
   <v>       0.57012273       0.43151521       0.47560985 </v>
   <v>       0.55827941       0.50720055       0.47101385 </v>
   <v>       0.58929154       0.48472424       0.45917121 </v>
   <v>       0.47285915       0.58483026       0.54137013 </v>
   <v>       0.50096956       0.55855955       0.53275224 </v>
   <v>       0.86082749       0.42927163       0.47349079 </v>
   <v>       0.94824948       0.44119823       0.46870538 </v>
   <v>       0.89501640       0.41045366       0.45597856 </v>
   <v>       0.11029559       0.52563504       0.54192112 </v>
   <v>       0.05615237       0.49748993       0.53251538 </v>
   <v>       0.34354493       0.77990239       0.58987543 </v>
   <v>       0.22002684       0.56511093       0.59212228 </v>
   <v>       0.43363571       0.65513075       0.59071374 </v>
   <v>       0.65249013       0.22255045       0.53107933 </v>
   <v>       0.77667041       0.42939688       0.53098137 </v>
   <v>       0.56938279       0.34566803       0.53130360 </v>
   <v>       0.55805145       0.96170165       0.47953467 </v>
   <v>       0.51289852       0.86634091       0.49700451 </v>
   <v>       0.63656270       0.14202408       0.51967134 </v>
   <v>       0.63095840       0.07186763       0.58093160 </v>
   <v>       0.58011750       0.00976866       0.57616772 </v>
   <v>       0.43598306       0.78793802       0.52921978 </v>
   <v>       0.40274178       0.44116574       0.47810039 </v>
   <v>       0.35203650       0.48588619       0.49611927 </v>
   <v>       0.50448222       0.36209486       0.51858767 </v>
   <v>       0.43808200       0.36598795       0.57716059 </v>
   <v>       0.42683278       0.41702471       0.57366013 </v>
   <v>       0.34972334       0.56229599       0.52979898 </v>
   <v>       0.03665338       0.59642912       0.48045774 </v>
   <v>       0.13169283       0.64713480       0.49972513 </v>
   <v>       0.85649472       0.49396660       0.51920119 </v>
   <v>       0.92597539       0.55894172       0.58016237 </v>
   <v>       0.98821921       0.57039925       0.57632648 </v>
   <v>       0.21014136       0.64901021       0.53214500 </v>
   <v>       0.33823869       0.77872292       0.50202891 </v>
   <v>       0.21941416       0.56094385       0.50418910 </v>
   <v>       0.43768907       0.65966262       0.50282116 </v>
   <v>       0.67380979       0.22470106       0.44805584 </v>
   <v>       0.77428829       0.44815840       0.44781225 </v>
   <v>       0.55171193       0.32676038       0.44731080 </v>
   <v>       0.45218256       0.02574219       0.45181700 </v>
   <v>       0.49338649       0.12079084       0.43017420 </v>
   <v>       0.37272169       0.86901305       0.55540692 </v>
   <v>       0.41911638       0.96450829       0.54095476 </v>
   <v>       0.56795759       0.20748770       0.45465743 </v>
   <v>       0.57292565       0.54790140       0.45607742 </v>
   <v>       0.62763286       0.50736223       0.43552899 </v>
   <v>       0.49331406       0.62537688       0.55884401 </v>
   <v>       0.54284900       0.57932313       0.54399818 </v>
   <v>       0.63972967       0.43237464       0.45807714 </v>
   <v>       0.97448217       0.42691057       0.45299918 </v>
   <v>       0.87965334       0.37263393       0.43088093 </v>
   <v>       0.13044285       0.50502591       0.55889115 </v>
   <v>       0.03521353       0.45538696       0.54262147 </v>
   <v>       0.79246329       0.35999191       0.45500540 </v>
  </varray>
 </structure>
 <calculation>
  <scstep>
   <time name="dav">  300.75  303.69</time>
   <time name="total">  301.02  303.96</time>
   <energy>
    <i name="alphaZ">     29.52735015 </i>
    <i name="ewald">  36571.29029866 </i>
    <i name="hartreedc"> -46037.92678924 </i>
    <i name="XCdc">   1092.48898722 </i>
    <i name="pawpsdc">  28571.95264155 </i>
    <i name="pawaedc"> -28627.69033347 </i>
    <i name="eentropy">     -0.00000000 </i>
    <i name="bandstr">  -3914.38211221 </i>
    <i name="atom">  11593.03632669 </i>
    <i name="e_fr_energy">   -721.70363064 </i>
    <i name="e_wo_entrp">   -721.70363064 </i>
    <i name="e_0_energy">   -721.70363064 </i>
   </energy>
  </scstep>
  <scstep>
   <time name="dav">  330.67  333.94</time>
   <time name="total">  330.68  333.95</time>
   <energy>
    <i name="e_fr_energy">   -722.11865348 </i>
    <i name="e_wo_entrp">   -722.11865348 </i>
    <i name="e_0_energy">   -722.11865348 </i>
   </energy>
  </scstep>
  <scstep>
   <time name="dav">  367.20  370.75</time>
   <time name="total">  367.21  370.76</time>
   <energy>
    <i name="e_fr_energy">   -722.13014453 </i>
    <i name="e_wo_entrp">   -722.13014453 </i>
    <i name="e_0_energy">   -722.13014453 </i>
   </energy>
  </scstep>
  <scstep>
   <time name="dav">  320.83  323.92</time>
   <time name="total">  320.84  323.93</time>
   <energy>
    <i name="e_fr_energy">   -722.13033849 </i>
    <i name="e_wo_entrp">   -722.13033849 </i>
    <i name="e_0_energy">   -722.13033849 </i>
   </energy>
  </scstep>
  <scstep>
   <time name="dav">  315.21  318.25</time>
   <time name="total">  315.23  318.26</time>
   <energy>
    <i name="alphaZ">     29.52735015 </i>
    <i name="ewald">  36571.29029866 </i>
    <i name="hartreedc"> -46037.92678924 </i>
    <i name="XCdc">   1092.48898722 </i>
    <i name="pawpsdc">  28571.95264155 </i>
    <i name="pawaedc"> -28627.69033347 </i>
    <i name="eentropy">     -0.00000000 </i>
    <i name="bandstr">  -3914.80882939 </i>
    <i name="atom">  11593.03632669 </i>
    <i name="e_fr_energy">   -722.13034782 </i>
    <i name="e_wo_entrp">   -722.13034782 </i>
    <i name="e_0_energy">   -722.13034782 </i>
   </energy>
  </scstep>
  <structure>
   <crystal>
    <varray name="basis" >
     <v>      29.40898826       0.04859794       0.00000000 </v>
     <v>     -14.66202610      25.46096712       0.00000000 </v>
     <v>       0.00000000       0.00000000      20.00000000 </v>
    </varray>
    <i name="volume">  14989.87655117 </i>
    <varray name="rec_basis" >
     <v>       0.03397088       0.01956257       0.00000000 </v>
     <v>      -0.00006484       0.03923847       0.00000000 </v>
     <v>       0.00000000       0.00000000       0.05000000 </v>
    </varray>
   </crystal>
   <varray name="positions" >
    <v>       0.38405012       0.70461726       0.54385057 </v>
    <v>       0.29397387       0.68065661       0.54399008 </v>
    <v>       0.31815243       0.61453435       0.54441748 </v>
    <v>       0.61541747       0.29296802       0.47408880 </v>
    <v>       0.70670351       0.32183475       0.47440563 </v>
    <v>       0.67758279       0.38427592       0.47436726 </v>
    <v>       0.60128406       0.04474378       0.55244241 </v>
    <v>       0.41552345       0.80671873       0.53857764 </v>
    <v>       0.44121845       0.39641573       0.54960379 </v>
    <v>       0.38865120       0.58264594       0.54040566 </v>
    <v>       0.95342701       0.55648693       0.55212624 </v>
    <v>       0.19174734       0.61007557       0.54303173 </v>
    <v>       0.59176125       0.19169813       0.45822985 </v>
    <v>       0.60027309       0.40851306       0.46139597 </v>
    <v>       0.80788634       0.39949330       0.45845446 </v>
    <v>       0.36811516       0.65292873       0.54420946 </v>
    <v>       0.34557095       0.71625724       0.54376318 </v>
    <v>       0.28247087       0.63060374       0.54470119 </v>
    <v>       0.22581029       0.58833420       0.54602507 </v>
    <v>       0.41037693       0.63832449       0.54450772 </v>
    <v>       0.62851775       0.34390548       0.47477721 </v>
    <v>       0.65582833       0.28415212       0.47452158 </v>
    <v>       0.71532758       0.37099390       0.47464145 </v>
    <v>       0.77091364       0.41528040       0.47829900 </v>
    <v>       0.58418076       0.35532674       0.47901336 </v>
    <v>       0.59575901       0.11703213       0.50476947 </v>
    <v>       0.57186760       0.06310250       0.51905378 </v>
    <v>       0.51933655       0.02873185       0.49894593 </v>
    <v>       0.49266564       0.97141024       0.51006182 </v>
    <v>       0.51782813       0.94189062       0.49807044 </v>
    <v>       0.49227390       0.88792034       0.50723813 </v>
    <v>       0.43951415       0.86016449       0.52826882 </v>
    <v>       0.52033617       0.40321034       0.50487737 </v>
    <v>       0.48971444       0.42668283       0.51846978 </v>
    <v>       0.50803356       0.47967374       0.49998178 </v>
    <v>       0.47705107       0.50612238       0.51093408 </v>
    <v>       0.42268204       0.48108809       0.49778604 </v>
    <v>       0.39398857       0.50643613       0.50722736 </v>
    <v>       0.41839095       0.55887135       0.52963766 </v>
    <v>       0.88186784       0.47839095       0.50465281 </v>
    <v>       0.93566365       0.50870052       0.51910917 </v>
    <v>       0.97049528       0.49079226       0.49957219 </v>
    <v>       0.02764979       0.52166355       0.51131101 </v>
    <v>       0.05668077       0.57628635       0.49956924 </v>
    <v>       0.11046271       0.60497503       0.50974381 </v>
    <v>       0.13849067       0.58032146       0.53153423 </v>
    <v>       0.35998494       0.77305621       0.54353442 </v>
    <v>       0.64438863       0.22838345       0.47830042 </v>
    <v>       0.56826053       0.13865944       0.47329851 </v>
    <v>       0.49255239       0.05159179       0.46790245 </v>
    <v>       0.51541317       0.10495530       0.45542247 </v>
    <v>       0.41349805       0.88889624       0.53899412 </v>
    <v>       0.43995946       0.94320759       0.53059079 </v>
    <v>       0.57012273       0.43151521       0.47560985 </v>
    <v>       0.55827941       0.50720055       0.47101385 </v>
    <v>       0.58929154       0.48472424       0.45917121 </v>
    <v>       0.47285915       0.58483026       0.54137013 </v>
    <v>       0.50096956       0.55855955       0.53275224 </v>
    <v>       0.86082749       0.42927163       0.47349079 </v>
    <v>       0.94824948       0.44119823       0.46870538 </v>
    <v>       0.89501640       0.41045366       0.45597856 </v>
    <v>       0.11029559       0.52563504       0.54192112 </v>
    <v>       0.05615237       0.49748993       0.53251538 </v>
    <v>       0.34354493       0.77990239       0.58987543 </v>
    <v>       0.22002684       0.56511093       0.59212228 </v>
    <v>       0.43363571       0.65513075       0.59071374 </v>
    <v>       0.65249013       0.22255045       0.53107933 </v>
    <v>       0.77667041       0.42939688       0.53098137 </v>
    <v>       0.56938279       0.34566803       0.53130360 </v>
    <v>       0.55805145       0.96170165       0.47953467 </v>
    <v>       0.51289852       0.86634091       0.49700451 </v>
    <v>       0.63656270       0.14202408       0.51967134 </v>
    <v>       0.63095840       0.07186763       0.58093160 </v>
    <v>       0.58011750       0.00976866       0.57616772 </v>
    <v>       0.43598306       0.78793802       0.52921978 </v>
    <v>       0.40274178       0.44116574       0.47810039 </v>
    <v>       0.35203650       0.48588619       0.49611927 </v>
    <v>       0.50448222       0.36209486       0.51858767 </v>
    <v>       0.43808200       0.36598795       0.57716059 </v>
    <v>       0.42683278       0.41702471       0.57366013 </v>
    <v>       0.34972334       0.56229599       0.52979898 </v>
    <v>       0.03665338       0.59642912       0.48045774 </v>
    <v>       0.13169283       0.64713480       0.49972513 </v>
    <v>       0.85649472       0.49396660       0.51920119 </v>
    <v>       0.92597539       0.55894172       0.58016237 </v>
    <v>       0.98821921       0.57039925       0.57632648 </v>
    <v>       0.21014136       0.64901021       0.53214500 </v>
    <v>       0.33823869       0.77872292       0.50202891 </v>
    <v>       0.21941416       0.56094385       0.50418910 </v>
    <v>       0.43768907       0.65966262       0.50282116 </v>
    <v>       0.67380979       0.22470106       0.44805584 </v>
    <v>       0.77428829       0.44815840       0.44781225 </v>
    <v>       0.55171193       0.32676038       0.44731080 </v>
    <v>       0.45218256       0.02574219       0.45181700 </v>
    <v>       0.49338649       0.12079084       0.43017420 </v>
    <v>       0.37272169       0.86901305       0.55540692 </v>
    <v>       0.41911638       0.96450829       0.54095476 </v>
    <v>       0.56795759       0.20748770       0.45465743 </v>
    <v>       0.57292565       0.54790140       0.45607742 </v>
    <v>       0.62763286       0.50736223       0.43552899 </v>
    <v>       0.49331406       0.62537688       0.55884401 </v>
    <v>       0.54284900       0.57932313       0.54399818 </v>
    <v>       0.63972967       0.43237464       0.45807714 </v>
    <v>       0.97448217       0.42691057       0.45299918 </v>
    <v>       0.87965334       0.37263393       0.43088093 </v>
    <v>       0.13044285       0.50502591       0.55889115 </v>
    <v>       0.03521353       0.45538696       0.54262147 </v>
    <v>       0.79246329       0.35999191       0.45500540 </v>
   </varray>
  </structure>
  <varray name="forces" >
   <v>      -0.00452065       0.00105409       0.00113882 </v>
   <v>       0.00215758      -0.00042359      -0.00091521 </v>
   <v>      -0.00649675      -0.00315064       0.00171889 </v>
   <v>      -0.00068165       0.00310313       0.00255205 </v>
   <v>      -0.00017503      -0.00070108      -0.00076223 </v>
   <v>       0.00296930      -0.00218753      -0.00305153 </v>
   <v>       0.00059071       0.00548638      -0.00211818 </v>
   <v>       0.00102859       0.00165905      -0.00036441 </v>
   <v>       0.00181369       0.00065465       0.00038419 </v>
   <v>       0.00509265       0.00226793       0.00027144 </v>
   <v>       0.00046076      -0.00332421      -0.00173336 </v>
   <v>       0.00035428       0.00273880      -0.00179031 </v>
   <v>       0.00239611      -0.00189662       0.00245745 </v>
   <v>      -0.00238043      -0.00355718       0.00123848 </v>
   <v>      -0.00314794       0.00470980      -0.00051850 </v>
   <v>       0.00066783       0.00052150       0.00069336 </v>
   <v>       0.00275200      -0.00150536      -0.00053407 </v>
   <v>       0.00036437       0.00000376      -0.00053987 </v>
   <v>       0.00142796       0.00035405      -0.00124333 </v>
   <v>       0.00239426      -0.00054718       0.00133271 </v>
   <v>       0.00070303      -0.00030565      -0.00302377 </v>
   <v>       0.00002166       0.00230955      -0.00133083 </v>
   <v>      -0.00051547       0.00207931      -0.00419143 </v>
   <v>      -0.00085476      -0.00420049      -0.00170367 </v>
   <v>       0.00064608       0.00462761      -0.00240809 </v>
   <v>       0.00172118       0.00312733       0.00042141 </v>
   <v>      -0.00337808      -0.00333541      -0.00243208 </v>
   <v>       0.00212885       0.00329911       0.00001735 </v>
   <v>       0.00286666       0.00052205       0.00050671 </v>
   <v>      -0.00168874       0.00012992       0.00055043 </v>
   <v>      -0.00113521      -0.00350272       0.00160171 </v>
   <v>      -0.00110731       0.00026376       0.00019979 </v>
   <v>       0.00039734       0.00164619       0.00039118 </v>
   <v>       0.00087009       0.00291052      -0.00094112 </v>
   <v>      -0.00158270      -0.00077701       0.00167708 </v>
   <v>      -0.00153394      -0.00397772      -0.00120530 </v>
   <v>       0.00132166       0.00006740      -0.00000798 </v>
   <v>       0.00080531       0.00003386       0.00033251 </v>
   <v>      -0.00287015      -0.00177619      -0.00114829 </v>
   <v>       0.00455659       0.00184698       0.00003635 </v>
   <v>       0.00039731      -0.00076833      -0.00021533 </v>
   <v>      -0.00267062      -0.00063537      -0.00045376 </v>
   <v>      -0.00146142       0.00156331      -0.00151887 </v>
   <v>       0.00028308      -0.00342921       0.00034963 </v>
   <v>      -0.00102961       0.00032171      -0.00092059 </v>
   <v>      -0.00044755      -0.00374067      -0.00026089 </v>
   <v>       0.00247163      -0.00152698      -0.00024072 </v>
   <v>      -0.00258991      -0.00023293      -0.00287400 </v>
   <v>       0.00217711      -0.00051573       0.00167925 </v>
   <v>       0.00358025      -0.00700023       0.00164279 </v>
   <v>       0.00191947       0.00435668      -0.00022914 </v>
   <v>       0.00486259      -0.00081768       0.00001189 </v>
   <v>       0.00252200      -0.00185493       0.00009552 </v>
   <v>      -0.00103371      -0.00058478      -0.00071277 </v>
   <v>      -0.00207020      -0.00132169      -0.00044014 </v>
   <v>      -0.00291398      -0.00247733      -0.00037503 </v>
   <v>      -0.00192836      -0.00103294       0.00068259 </v>
   <v>      -0.00150363      -0.00295970      -0.00049898 </v>
   <v>       0.00220381       0.00323683       0.00209449 </v>
   <v>      -0.00245694       0.00465844       0.00276854 </v>
   <v>      -0.00166412       0.00205113       0.00095343 </v>
   <v>      -0.00175645       0.00243506      -0.00099782 </v>
   <v>       0.00012092       0.00073099       0.00009327 </v>
   <v>       0.00239227       0.00000190       0.00034796 </v>
   <v>      -0.00146313       0.00196381      -0.00138334 </v>
   <v>      -0.00354621      -0.00508444      -0.00089779 </v>
   <v>       0.00118747      -0.00008264       0.00093090 </v>
   <v>       0.00159847      -0.00172605       0.00130253 </v>
   <v>       0.00222259       0.00023470       0.00039284 </v>
   <v>      -0.00200508      -0.00229950       0.00086687 </v>
   <v>      -0.00204299       0.00096110       0.00022387 </v>
   <v>      -0.00356168      -0.00314300      -0.00190229 </v>
   <v>      -0.00034676      -0.00229369      -0.00164226 </v>
   <v>      -0.00135489       0.00171769       0.00156165 </v>
   <v>      -0.00179540       0.00003396       0.00007698 </v>
   <v>      -0.00079035       0.00238229       0.00144668 </v>
   <v>       0.00202638       0.00154134      -0.00056913 </v>
   <v>      -0.00025093       0.00437164      -0.00038058 </v>
   <v>      -0.00223325       0.00195008      -0.00028321 </v>
   <v>       0.00138469       0.00036113       0.00032738 </v>
   <v>       0.00018046      -0.00150353      -0.00046760 </v>
   <v>       0.00215443      -0.00168983       0.00157245 </v>
   <v>      -0.00251500      -0.00453732      -0.00076813 </v>
   <v>       0.00093995       0.00091919      -0.00058820 </v>
   <v>       0.00153442       0.00000184      -0.00139174 </v>
   <v>      -0.00208442      -0.00105441       0.00074888 </v>
   <v>      -0.00004633      -0.00411319      -0.00061813 </v>
   <v>       0.00349628       0.00052537       0.00307461 </v>
   <v>       0.00040101       0.00235332       0.00092087 </v>
   <v>      -0.00342137      -0.00169731       0.00339386 </v>
   <v>      -0.00315535       0.00099185      -0.00006858 </v>
   <v>       0.00013147      -0.00164537       0.00241073 </v>
   <v>       0.00257745       0.00310826       0.00228764 </v>
   <v>       0.00656803       0.00345429       0.00095993 </v>
   <v>       0.00320825      -0.00172789       0.00077862 </v>
   <v>       0.00376233       0.00144133      -0.00046678 </v>
   <v>       0.00461624      -0.00090261      -0.00057491 </v>
   <v>       0.00200146      -0.00030118       0.00017694 </v>
   <v>       0.00047781      -0.00255690      -0.00039722 </v>
   <v>      -0.00089952      -0.00073862       0.00068126 </v>
   <v>      -0.00002107      -0.00453862      -0.00128576 </v>
   <v>      -0.00397231      -0.00345764       0.00067158 </v>
   <v>      -0.00298752       0.00026173       0.00094088 </v>
   <v>      -0.00434312       0.00031328      -0.00040498 </v>
   <v>      -0.00088697       0.00344533       0.00128896 </v>
   <v>      -0.00344513       0.00110798      -0.00104640 </v>
   <v>      -0.00122298       0.00547012       0.00046028 </v>
   <v>       0.00007888       0.00547639       0.00110019 </v>
  </varray>
  <varray name="stress" >
   <v>      -0.00631114       0.00063914       0.00532563 </v>
   <v>       0.00063914      -0.00630182      -0.00459228 </v>
   <v>       0.00532563      -0.00459228      -0.16763734 </v>
  </varray>
  <energy>
   <i name="e_fr_energy">   -724.05278531 </i>
   <i name="e_wo_entrp">   -724.05278531 </i>
   <i name="e_0_energy">     -0.00000000 </i>
  </energy>
  <time name="totalsc"> 1937.42 1957.03</time>
  <eigenvalues>
   <array>
    <dimension dim="1">band</dimension>
    <dimension dim="2">kpoint</dimension>
    <dimension dim="3">spin</dimension>
    <field>eigene</field>
    <field>occ</field>
    <set>
     <set comment="spin 1">
      <set comment="kpoint 1">
       <r>  -26.0777    1.0000 </r>
       <r>  -25.9597    1.0000 </r>
       <r>  -23.6430    1.0000 </r>
       <r>  -23.6387    1.0000 </r>
       <r>  -23.4865    1.0000 </r>
       <r>  -23.4815    1.0000 </r>
       <r>  -23.2881    1.0000 </r>
       <r>  -23.1353    1.0000 </r>
       <r>  -22.6971    1.0000 </r>
       <r>  -22.6954    1.0000 </r>
       <r>  -22.6113    1.0000 </r>
       <r>  -22.6080    1.0000 </r>
       <r>  -22.4428    1.0000 </r>
       <r>  -22.4117    1.0000 </r>
       <r>  -22.4081    1.0000 </r>
       <r>  -20.6717    1.0000 </r>
       <r>  -20.6668    1.0000 </r>
       <r>  -20.6618    1.0000 </r>
       <r>  -20.0866    1.0000 </r>
       <r>  -20.0837    1.0000 </r>
       <r>  -20.0538    1.0000 </r>
       <r>  -19.1345    1.0000 </r>
       <r>  -19.1326    1.0000 </r>
       <r>  -18.8222    1.0000 </r>
       <r>  -18.7077    1.0000 </r>
       <r>  -18.7035    1.0000 </r>
       <r>  -18.1349    1.0000 </r>
       <r>  -17.9837    1.0000 </r>
       <r>  -17.9787    1.0000 </r>
       <r>  -17.9507    1.0000 </r>
       <r>  -17.9048    1.0000 </r>
       <r>  -17.9016    1.0000 </r>
       <r>  -17.5958    1.0000 </r>
       <r>  -17.4700    1.0000 </r>
       <r>  -17.4661    1.0000 </r>
       <r>  -17.2403    1.0000 </r>
       <r>  -16.7628    1.0000 </r>
       <r>  -16.7607    1.0000 </r>
       <r>  -16.4448    1.0000 </r>
       <r>  -15.7518    1.0000 </r>
       <r>  -15.7485    1.0000 </r>
       <r>  -15.5968    1.0000 </r>
       <r>  -15.5929    1.0000 </r>
       <r>  -15.1297    1.0000 </r>
       <r>  -14.8434    1.0000 </r>
       <r>  -14.8332    1.0000 </r>
       <r>  -14.8305    1.0000 </r>
       <r>  -14.5429    1.0000 </r>
       <r>  -14.5395    1.0000 </r>
       <r>  -14.5067    1.0000 </r>
       <r>  -14.3995    1.0000 </r>
       <r>  -14.0253    1.0000 </r>
       <r>  -14.0224    1.0000 </r>
       <r>  -13.9045    1.0000 </r>
       <r>  -13.8960    1.0000 </r>
       <r>  -13.8936    1.0000 </r>
       <r>  -13.6894    1.0000 </r>
       <r>  -13.1665    1.0000 </r>
       <r>  -13.0235    1.0000 </r>
       <r>  -12.8330    1.0000 </r>
       <r>  -12.8312    1.0000 </r>
       <r>  -12.7656    1.0000 </r>
       <r>  -12.7650    1.0000 </r>
       <r>  -12.5095    1.0000 </r>
       <r>  -12.3258    1.0000 </r>
       <r>  -12.2842    1.0000 </r>
       <r>  -12.2671    1.0000 </r>
       <r>  -12.2644    1.0000 </r>
       <r>  -12.0469    1.0000 </r>
       <r>  -11.9829    1.0000 </r>
       <r>  -11.9819    1.0000 </r>
       <r>  -11.8520    1.0000 </r>
       <r>  -11.6490    1.0000 </r>
       <r>  -11.6446    1.0000 </r>
       <r>  -11.4640    1.0000 </r>
       <r>  -11.4598    1.0000 </r>
       <r>  -11.4561    1.0000 </r>
       <r>  -11.4068    1.0000 </r>
       <r>  -11.3976    1.0000 </r>
       <r>  -11.1039    1.0000 </r>
       <r>  -11.0904    1.0000 </r>
       <r>  -10.9930    1.0000 </r>
       <r>  -10.8746    1.0000 </r>
       <r>  -10.8331    1.0000 </r>
       <r>  -10.8267    1.0000 </r>
       <r>  -10.4527    1.0000 </r>
       <r>  -10.3345    1.0000 </r>
       <r>  -10.3311    1.0000 </r>
       <r>  -10.2698    1.0000 </r>
       <r>  -10.1947    1.0000 </r>
       <r>  -10.1838    1.0000 </r>
       <r>  -10.1813    1.0000 </r>
       <r>  -10.1465    1.0000 </r>
       <r>   -9.9935    1.0000 </r>
       <r>   -9.8858    1.0000 </r>
       <r>   -9.8826    1.0000 </r>
       <r>   -9.7825    1.0000 </r>
       <r>   -9.7814    1.0000 </r>
       <r>   -9.7421    1.0000 </r>
       <r>   -9.6693    1.0000 </r>
       <r>   -9.6435    1.0000 </r>
       <r>   -9.6407    1.0000 </r>
       <r>   -9.6217    1.0000 </r>
       <r>   -9.6204    1.0000 </r>
       <r>   -9.5074    1.0000 </r>
       <r>   -9.3787    1.0000 </r>
       <r>   -9.3763    1.0000 </r>
       <r>   -9.2799    1.0000 </r>
       <r>   -9.1803    1.0000 </r>
       <r>   -9.1233    1.0000 </r>
       <r>   -9.0876    1.0000 </r>
       <r>   -9.0859    1.0000 </r>
       <r>   -8.9932    1.0000 </r>
       <r>   -8.9901    1.0000 </r>
       <r>   -8.8829    1.0000 </r>
       <r>   -8.8766    1.0000 </r>
       <r>   -8.8726    1.0000 </r>
       <r>   -8.6740    1.0000 </r>
       <r>   -8.2445    1.0000 </r>
       <r>   -8.2420    1.0000 </r>
       <r>   -8.0915    1.0000 </r>
       <r>   -8.0911    1.0000 </r>
       <r>   -8.0267    1.0000 </r>
       <r>   -7.9926    1.0000 </r>
       <r>   -7.9904    1.0000 </r>
       <r>   -7.8108    1.0000 </r>
       <r>   -7.8085    1.0000 </r>
       <r>   -7.8024    1.0000 </r>
       <r>   -7.5825    1.0000 </r>
       <r>   -7.5771    1.0000 </r>
       <r>   -7.5751    1.0000 </r>
       <r>   -7.4460    1.0000 </r>
       <r>   -7.4045    1.0000 </r>
       <r>   -7.4004    1.0000 </r>
       <r>   -7.0203    1.0000 </r>
       <r>   -7.0035    1.0000 </r>
       <r>   -7.0019    1.0000 </r>
       <r>   -6.6624    1.0000 </r>
       <r>   -6.6580    1.0000 </r>
       <r>   -6.5594    1.0000 </r>
       <r>   -6.5572    1.0000 </r>
       <r>   -6.2321    1.0000 </r>
       <r>   -6.2274    1.0000 </r>
       <r>   -6.2243    1.0000 </r>
       <r>   -5.8487    1.0000 </r>
       <r>   -5.8426    1.0000 </r>
       <r>   -5.8398    1.0000 </r>
       <r>   -4.8295    1.0000 </r>
       <r>   -4.8201    1.0000 </r>
       <r>   -4.8151    1.0000 </r>
       <r>   -4.7076    1.0000 </r>
       <r>   -4.7021    1.0000 </r>
       <r>   -4.6942    1.0000 </r>
       <r>   -3.8942    1.0000 </r>
       <r>   -3.8847    1.0000 </r>
       <r>   -3.8752    1.0000 </r>
       <r>   -2.5375    0.0000 </r>
       <r>   -2.5349    0.0000 </r>
       <r>   -2.4516    0.0000 </r>
       <r>   -2.4468    0.0000 </r>
       <r>   -0.8223    0.0000 </r>
       <r>   -0.8050    0.0000 </r>
       <r>   -0.8008    0.0000 </r>
       <r>   -0.7382    0.0000 </r>
       <r>   -0.7249    0.0000 </r>
       <r>   -0.7150    0.0000 </r>
       <r>   -0.5805    0.0000 </r>
       <r>   -0.5323    0.0000 </r>
       <r>   -0.4130    0.0000 </r>
       <r>   -0.4096    0.0000 </r>
       <r>   -0.3870    0.0000 </r>
       <r>   -0.2812    0.0000 </r>
       <r>   -0.2793    0.0000 </r>
       <r>   -0.2126    0.0000 </r>
       <r>   -0.2104    0.0000 </r>
       <r>   -0.0398    0.0000 </r>
       <r>    0.0628    0.0000 </r>
       <r>    0.0849    0.0000 </r>
       <r>    0.0873    0.0000 </r>
       <r>    0.1092    0.0000 </r>
       <r>    0.2482    0.0000 </r>
       <r>    0.2503    0.0000 </r>
       <r>    0.2545    0.0000 </r>
       <r>    0.3525    0.0000 </r>
       <r>    0.3790    0.0000 </r>
       <r>    0.3816    0.0000 </r>
       <r>    0.4592    0.0000 </r>
       <r>    0.4918    0.0000 </r>
       <r>    0.4936    0.0000 </r>
       <r>    0.4947    0.0000 </r>
       <r>    0.5402    0.0000 </r>
       <r>    0.5407    0.0000 </r>
       <r>    0.5578    0.0000 </r>
       <r>    0.6686    0.0000 </r>
       <r>    0.6724    0.0000 </r>
       <r>    0.6756    0.0000 </r>
       <r>    0.6884    0.0000 </r>
       <r>    0.6901    0.0000 </r>
       <r>    0.7355    0.0000 </r>
       <r>    0.7426    0.0000 </r>
       <r>    0.7504    0.0000 </r>
       <r>    0.7920    0.0000 </r>
       <r>    0.7963    0.0000 </r>
       <r>    0.7991    0.0000 </r>
       <r>    0.8594    0.0000 </r>
       <r>    0.8789    0.0000 </r>
       <r>    0.9064    0.0000 </r>
       <r>    0.9092    0.0000 </r>
       <r>    0.9329    0.0000 </r>
       <r>    0.9453    0.0000 </r>
       <r>    0.9472    0.0000 </r>
       <r>    0.9936    0.0000 </r>
       <r>    1.0153    0.0000 </r>
       <r>    1.0172    0.0000 </r>
       <r>    1.0273    0.0000 </r>
       <r>    1.0874    0.0000 </r>
       <r>    1.0906    0.0000 </r>
       <r>    1.1193    0.0000 </r>
       <r>    1.1205    0.0000 </r>
       <r>    1.1218    0.0000 </r>
       <r>    1.1404    0.0000 </r>
       <r>    1.1829    0.0000 </r>
       <r>    1.2030    0.0000 </r>
       <r>    1.2082    0.0000 </r>
      </set>
      <set comment="kpoint 2">
       <r>  -26.0777    1.0000 </r>
       <r>  -25.9597    1.0000 </r>
       <r>  -23.6430    1.0000 </r>
       <r>  -23.6387    1.0000 </r>
       <r>  -23.4865    1.0000 </r>
       <r>  -23.4815    1.0000 </r>
       <r>  -23.2881    1.0000 </r>
       <r>  -23.1353    1.0000 </r>
       <r>  -22.6971    1.0000 </r>
       <r>  -22.6954    1.0000 </r>
       <r>  -22.6113    1.0000 </r>
       <r>  -22.6080    1.0000 </r>
       <r>  -22.4428    1.0000 </r>
       <r>  -22.4117    1.0000 </r>
       <r>  -22.4081    1.0000 </r>
       <r>  -20.6717    1.0000 </r>
       <r>  -20.6668    1.0000 </r>
       <r>  -20.6618    1.0000 </r>
       <r>  -20.0866    1.0000 </r>
       <r>  -20.0837    1.0000 </r>
       <r>  -20.0538    1.0000 </r>
       <r>  -19.1345    1.0000 </r>
       <r>  -19.1324    1.0000 </r>
       <r>  -18.8238    1.0000 </r>
       <r>  -18.7074    1.0000 </r>
       <r>  -18.7020    1.0000 </r>
       <r>  -18.1364    1.0000 </r>
       <r>  -17.9837    1.0000 </r>
       <r>  -17.9786    1.0000 </r>
       <r>  -17.9511    1.0000 </r>
       <r>  -17.9034    1.0000 </r>
       <r>  -17.9011    1.0000 </r>
       <r>  -17.5959    1.0000 </r>
       <r>  -17.4698    1.0000 </r>
       <r>  -17.4661    1.0000 </r>
       <r>  -17.2410    1.0000 </r>
       <r>  -16.7623    1.0000 </r>
       <r>  -16.7605    1.0000 </r>
       <r>  -16.4452    1.0000 </r>
       <r>  -15.7519    1.0000 </r>
       <r>  -15.7484    1.0000 </r>
       <r>  -15.5969    1.0000 </r>
       <r>  -15.5928    1.0000 </r>
       <r>  -15.1294    1.0000 </r>
       <r>  -14.8438    1.0000 </r>
       <r>  -14.8340    1.0000 </r>
       <r>  -14.8300    1.0000 </r>
       <r>  -14.5439    1.0000 </r>
       <r>  -14.5399    1.0000 </r>
       <r>  -14.5055    1.0000 </r>
       <r>  -14.3984    1.0000 </r>
       <r>  -14.0261    1.0000 </r>
       <r>  -14.0225    1.0000 </r>
       <r>  -13.9098    1.0000 </r>
       <r>  -13.8944    1.0000 </r>
       <r>  -13.8895    1.0000 </r>
       <r>  -13.6894    1.0000 </r>
       <r>  -13.1663    1.0000 </r>
       <r>  -13.0237    1.0000 </r>
       <r>  -12.8330    1.0000 </r>
       <r>  -12.8312    1.0000 </r>
       <r>  -12.7657    1.0000 </r>
       <r>  -12.7650    1.0000 </r>
       <r>  -12.5094    1.0000 </r>
       <r>  -12.3258    1.0000 </r>
       <r>  -12.2845    1.0000 </r>
       <r>  -12.2669    1.0000 </r>
       <r>  -12.2643    1.0000 </r>
       <r>  -12.0470    1.0000 </r>
       <r>  -11.9829    1.0000 </r>
       <r>  -11.9822    1.0000 </r>
       <r>  -11.8517    1.0000 </r>
       <r>  -11.6490    1.0000 </r>
       <r>  -11.6446    1.0000 </r>
       <r>  -11.4641    1.0000 </r>
       <r>  -11.4597    1.0000 </r>
       <r>  -11.4561    1.0000 </r>
       <r>  -11.4068    1.0000 </r>
       <r>  -11.3975    1.0000 </r>
       <r>  -11.1040    1.0000 </r>
       <r>  -11.0905    1.0000 </r>
       <r>  -10.9928    1.0000 </r>
       <r>  -10.8747    1.0000 </r>
       <r>  -10.8330    1.0000 </r>
       <r>  -10.8267    1.0000 </r>
       <r>  -10.4530    1.0000 </r>
       <r>  -10.3344    1.0000 </r>
       <r>  -10.3311    1.0000 </r>
       <r>  -10.2699    1.0000 </r>
       <r>  -10.1947    1.0000 </r>
       <r>  -10.1838    1.0000 </r>
       <r>  -10.1812    1.0000 </r>
       <r>  -10.1464    1.0000 </r>
       <r>   -9.9936    1.0000 </r>
       <r>   -9.8858    1.0000 </r>
       <r>   -9.8825    1.0000 </r>
       <r>   -9.7826    1.0000 </r>
       <r>   -9.7815    1.0000 </r>
       <r>   -9.7421    1.0000 </r>
       <r>   -9.6695    1.0000 </r>
       <r>   -9.6438    1.0000 </r>
       <r>   -9.6408    1.0000 </r>
       <r>   -9.6213    1.0000 </r>
       <r>   -9.6201    1.0000 </r>
       <r>   -9.5073    1.0000 </r>
       <r>   -9.3789    1.0000 </r>
       <r>   -9.3764    1.0000 </r>
       <r>   -9.2799    1.0000 </r>
       <r>   -9.1802    1.0000 </r>
       <r>   -9.1234    1.0000 </r>
       <r>   -9.0876    1.0000 </r>
       <r>   -9.0860    1.0000 </r>
       <r>   -8.9931    1.0000 </r>
       <r>   -8.9901    1.0000 </r>
       <r>   -8.8846    1.0000 </r>
       <r>   -8.8756    1.0000 </r>
       <r>   -8.8719    1.0000 </r>
       <r>   -8.6742    1.0000 </r>
       <r>   -8.2443    1.0000 </r>
       <r>   -8.2420    1.0000 </r>
       <r>   -8.0919    1.0000 </r>
       <r>   -8.0911    1.0000 </r>
       <r>   -8.0265    1.0000 </r>
       <r>   -7.9926    1.0000 </r>
       <r>   -7.9904    1.0000 </r>
       <r>   -7.8108    1.0000 </r>
       <r>   -7.8085    1.0000 </r>
       <r>   -7.8024    1.0000 </r>
       <r>   -7.5825    1.0000 </r>
       <r>   -7.5771    1.0000 </r>
       <r>   -7.5751    1.0000 </r>
       <r>   -7.4460    1.0000 </r>
       <r>   -7.4045    1.0000 </r>
       <r>   -7.4004    1.0000 </r>
       <r>   -7.0203    1.0000 </r>
       <r>   -7.0035    1.0000 </r>
       <r>   -7.0019    1.0000 </r>
       <r>   -6.6624    1.0000 </r>
       <r>   -6.6580    1.0000 </r>
       <r>   -6.5594    1.0000 </r>
       <r>   -6.5572    1.0000 </r>
       <r>   -6.2321    1.0000 </r>
       <r>   -6.2274    1.0000 </r>
       <r>   -6.2243    1.0000 </r>
       <r>   -5.8487    1.0000 </r>
       <r>   -5.8426    1.0000 </r>
       <r>   -5.8398    1.0000 </r>
       <r>   -4.8295    1.0000 </r>
       <r>   -4.8201    1.0000 </r>
       <r>   -4.8151    1.0000 </r>
       <r>   -4.7076    1.0000 </r>
       <r>   -4.7021    1.0000 </r>
       <r>   -4.6942    1.0000 </r>
       <r>   -3.8942    1.0000 </r>
       <r>   -3.8847    1.0000 </r>
       <r>   -3.8752    1.0000 </r>
       <r>   -2.5375    0.0000 </r>
       <r>   -2.5349    0.0000 </r>
       <r>   -2.4516    0.0000 </r>
       <r>   -2.4468    0.0000 </r>
       <r>   -0.8223    0.0000 </r>
       <r>   -0.8050    0.0000 </r>
       <r>   -0.8008    0.0000 </r>
       <r>   -0.7381    0.0000 </r>
       <r>   -0.7249    0.0000 </r>
       <r>   -0.7150    0.0000 </r>
       <r>   -0.5804    0.0000 </r>
       <r>   -0.5323    0.0000 </r>
       <r>   -0.4130    0.0000 </r>
       <r>   -0.4096    0.0000 </r>
       <r>   -0.3870    0.0000 </r>
       <r>   -0.2811    0.0000 </r>
       <r>   -0.2794    0.0000 </r>
       <r>   -0.2126    0.0000 </r>
       <r>   -0.2101    0.0000 </r>
       <r>   -0.0398    0.0000 </r>
       <r>    0.0627    0.0000 </r>
       <r>    0.0842    0.0000 </r>
       <r>    0.0868    0.0000 </r>
       <r>    0.1098    0.0000 </r>
       <r>    0.2481    0.0000 </r>
       <r>    0.2502    0.0000 </r>
       <r>    0.2554    0.0000 </r>
       <r>    0.3521    0.0000 </r>
       <r>    0.3795    0.0000 </r>
       <r>    0.3816    0.0000 </r>
       <r>    0.4592    0.0000 </r>
       <r>    0.4903    0.0000 </r>
       <r>    0.4936    0.0000 </r>
       <r>    0.4957    0.0000 </r>
       <r>    0.5404    0.0000 </r>
       <r>    0.5410    0.0000 </r>
       <r>    0.5582    0.0000 </r>
       <r>    0.6677    0.0000 </r>
       <r>    0.6715    0.0000 </r>
       <r>    0.6754    0.0000 </r>
       <r>    0.6889    0.0000 </r>
       <r>    0.6905    0.0000 </r>
       <r>    0.7342    0.0000 </r>
       <r>    0.7430    0.0000 </r>
       <r>    0.7525    0.0000 </r>
       <r>    0.7900    0.0000 </r>
       <r>    0.7976    0.0000 </r>
       <r>    0.7988    0.0000 </r>
       <r>    0.8603    0.0000 </r>
       <r>    0.8788    0.0000 </r>
       <r>    0.9052    0.0000 </r>
       <r>    0.9082    0.0000 </r>
       <r>    0.9309    0.0000 </r>
       <r>    0.9465    0.0000 </r>
       <r>    0.9502    0.0000 </r>
       <r>    0.9937    0.0000 </r>
       <r>    1.0144    0.0000 </r>
       <r>    1.0172    0.0000 </r>
       <r>    1.0284    0.0000 </r>
       <r>    1.0860    0.0000 </r>
       <r>    1.0900    0.0000 </r>
       <r>    1.1150    0.0000 </r>
       <r>    1.1200    0.0000 </r>
       <r>    1.1267    0.0000 </r>
       <r>    1.1418    0.0000 </r>
       <r>    1.1806    0.0000 </r>
       <r>    1.2013    0.0000 </r>
       <r>    1.2097    0.0000 </r>
      </set>
      <set comment="kpoint 3">
       <r>  -26.0777    1.0000 </r>
       <r>  -25.9597    1.0000 </r>
       <r>  -23.6430    1.0000 </r>
       <r>  -23.6387    1.0000 </r>
       <r>  -23.4865    1.0000 </r>
       <r>  -23.4815    1.0000 </r>
       <r>  -23.2881    1.0000 </r>
       <r>  -23.1353    1.0000 </r>
       <r>  -22.6971    1.0000 </r>
       <r>  -22.6954    1.0000 </r>
       <r>  -22.6113    1.0000 </r>
       <r>  -22.6080    1.0000 </r>
       <r>  -22.4428    1.0000 </r>
       <r>  -22.4117    1.0000 </r>
       <r>  -22.4081    1.0000 </r>
       <r>  -20.6717    1.0000 </r>
       <r>  -20.6668    1.0000 </r>
       <r>  -20.6618    1.0000 </r>
       <r>  -20.0865    1.0000 </r>
       <r>  -20.0837    1.0000 </r>
       <r>  -20.0539    1.0000 </r>
       <r>  -19.1345    1.0000 </r>
       <r>  -19.1318    1.0000 </r>
       <r>  -18.8284    1.0000 </r>
       <r>  -18.7071    1.0000 </r>
       <r>  -18.6970    1.0000 </r>
       <r>  -18.1408    1.0000 </r>
       <r>  -17.9835    1.0000 </r>
       <r>  -17.9786    1.0000 </r>
       <r>  -17.9524    1.0000 </r>
       <r>  -17.9023    1.0000 </r>
       <r>  -17.8970    1.0000 </r>
       <r>  -17.5963    1.0000 </r>
       <r>  -17.4695    1.0000 </r>
       <r>  -17.4661    1.0000 </r>
       <r>  -17.2432    1.0000 </r>
       <r>  -16.7616    1.0000 </r>
       <r>  -16.7591    1.0000 </r>
       <r>  -16.4464    1.0000 </r>
       <r>  -15.7520    1.0000 </r>
       <r>  -15.7480    1.0000 </r>
       <r>  -15.5973    1.0000 </r>
       <r>  -15.5926    1.0000 </r>
       <r>  -15.1283    1.0000 </r>
       <r>  -14.8448    1.0000 </r>
       <r>  -14.8362    1.0000 </r>
       <r>  -14.8286    1.0000 </r>
[...]
       <r>   -22.7379     0.0000    16.0000 </r>
       <r>   -22.6377    39.9610    20.0002 </r>
       <r>   -22.5376    39.9563    24.0000 </r>
       <r>   -22.4375    15.1130    25.5129 </r>
       <r>   -22.3374    39.9554    30.0000 </r>
       <r>   -22.2373     0.0000    30.0000 </r>
       <r>   -22.1372     0.0000    30.0000 </r>
       <r>   -22.0371     0.0000    30.0000 </r>
       <r>   -21.9370     0.0000    30.0000 </r>
       <r>   -21.8369     0.0000    30.0000 </r>
       <r>   -21.7368     0.0000    30.0000 </r>
       <r>   -21.6367     0.0000    30.0000 </r>
       <r>   -21.5366     0.0000    30.0000 </r>
       <r>   -21.4365     0.0000    30.0000 </r>
       <r>   -21.3364     0.0000    30.0000 </r>
       <r>   -21.2363     0.0000    30.0000 </r>
       <r>   -21.1362     0.0000    30.0000 </r>
       <r>   -21.0361     0.0000    30.0000 </r>
       <r>   -20.9360     0.0000    30.0000 </r>
       <r>   -20.8359     0.0000    30.0000 </r>
       <r>   -20.7358     0.0000    30.0000 </r>
       <r>   -20.6357    59.9358    35.9998 </r>
       <r>   -20.5356     0.0000    36.0000 </r>
       <r>   -20.4355     0.0000    36.0000 </r>
       <r>   -20.3354     0.0000    36.0000 </r>
       <r>   -20.2353     0.0000    36.0000 </r>
       <r>   -20.1352     0.0000    36.0000 </r>
       <r>   -20.0351    59.9155    41.9978 </r>
       <r>   -19.9350     0.0000    42.0000 </r>
       <r>   -19.8349     0.0000    42.0000 </r>
       <r>   -19.7347     0.0000    42.0000 </r>
       <r>   -19.6346     0.0000    42.0000 </r>
       <r>   -19.5345     0.0000    42.0000 </r>
       <r>   -19.4344     0.0000    42.0000 </r>
       <r>   -19.3343     0.0000    42.0000 </r>
       <r>   -19.2342     0.0000    42.0000 </r>
       <r>   -19.1341    11.4649    43.1477 </r>
       <r>   -19.0340    13.3185    46.0000 </r>
       <r>   -18.9339    11.0241    47.1036 </r>
       <r>   -18.8338     5.3364    47.8009 </r>
       <r>   -18.7337     0.0014    48.0001 </r>
       <r>   -18.6336    25.0388    50.5066 </r>
       <r>   -18.5335     3.7020    50.9706 </r>
       <r>   -18.4334     8.6559    52.0000 </r>
       <r>   -18.3333     6.9083    52.6915 </r>
       <r>   -18.2332     3.5732    53.3577 </r>
       <r>   -18.1331     5.1100    53.9449 </r>
       <r>   -18.0330     0.0000    54.0000 </r>
       <r>   -17.9329    59.9270    59.9989 </r>
       <r>   -17.8328    25.1174    62.5144 </r>
       <r>   -17.7327     4.5213    63.0526 </r>
       <r>   -17.6326    12.9431    64.7957 </r>
       <r>   -17.5325     7.3249    66.0000 </r>
       <r>   -17.4324    33.3423    69.3377 </r>
       <r>   -17.3323    12.9152    71.1263 </r>
       <r>   -17.2322     7.1286    71.9803 </r>
       <r>   -17.1321     0.0000    72.0000 </r>
       <r>   -17.0320     0.0000    72.0000 </r>
       <r>   -16.9319     0.0000    72.0000 </r>
       <r>   -16.8317     0.0000    72.0000 </r>
       <r>   -16.7316    24.5265    74.4552 </r>
       <r>   -16.6315     7.4549    75.3463 </r>
       <r>   -16.5314    10.8762    76.7888 </r>
       <r>   -16.4313     9.2718    77.9949 </r>
       <r>   -16.3312     0.0000    78.0000 </r>
       <r>   -16.2311     0.0000    78.0000 </r>
       <r>   -16.1310     0.0000    78.0000 </r>
       <r>   -16.0309     0.0000    78.0000 </r>
       <r>   -15.9308     0.0000    78.0000 </r>
       <r>   -15.8307     0.0000    78.0000 </r>
       <r>   -15.7306    31.9393    81.1972 </r>
       <r>   -15.6305     0.8724    82.0873 </r>
       <r>   -15.5304    27.9691    86.0000 </r>
       <r>   -15.4303     0.0000    86.0000 </r>
       <r>   -15.3302     0.0000    86.0000 </r>
       <r>   -15.2301     0.0000    86.0000 </r>
       <r>   -15.1300     1.2663    86.1268 </r>
       <r>   -15.0299    12.1536    87.7167 </r>
       <r>   -14.9298    11.3465    89.1358 </r>
       <r>   -14.8297    28.1413    92.0837 </r>
       <r>   -14.7296    14.3176    94.0000 </r>
       <r>   -14.6295    11.9961    95.2008 </r>
       <r>   -14.5294    17.3699    97.0722 </r>
       <r>   -14.4293    10.4296    98.6775 </r>
       <r>   -14.3292    18.8556   100.6542 </r>
       <r>   -14.2291    11.9847   102.0000 </r>
       <r>   -14.1290     9.3393   102.9349 </r>
       <r>   -14.0289    25.5170   105.7877 </r>
       <r>   -13.9287    11.8716   107.7551 </r>
       <r>   -13.8286    25.8897   110.5250 </r>
       <r>   -13.7285    12.9864   112.0000 </r>
       <r>   -13.6284    19.9793   114.0000 </r>
       <r>   -13.5283     0.0000   114.0000 </r>
       <r>   -13.4282     0.0000   114.0000 </r>
       <r>   -13.3281     0.0000   114.0000 </r>
       <r>   -13.2280     0.0000   114.0000 </r>
       <r>   -13.1279    12.2785   115.2291 </r>
       <r>   -13.0278    17.1446   117.7162 </r>
       <r>   -12.9277     0.0000   118.0000 </r>
       <r>   -12.8276    22.5767   120.2600 </r>
       <r>   -12.7275    41.6209   125.9999 </r>
       <r>   -12.6274     0.0000   126.0000 </r>
       <r>   -12.5273     0.0149   126.0015 </r>
       <r>   -12.4272    17.3132   128.0000 </r>
       <r>   -12.3271    11.6346   129.1647 </r>
       <r>   -12.2270    57.2543   135.8988 </r>
       <r>   -12.1269     0.0000   136.0000 </r>
       <r>   -12.0268    22.2236   138.2247 </r>
       <r>   -11.9267    26.6382   142.0000 </r>
       <r>   -11.8266     8.8632   142.8872 </r>
       <r>   -11.7265     0.0000   144.0000 </r>
       <r>   -11.6264    39.8582   147.9899 </r>
       <r>   -11.5263     0.0000   148.0000 </r>
       <r>   -11.4262    59.9857   154.0048 </r>
       <r>   -11.3261    23.9665   158.0000 </r>
       <r>   -11.2260     0.0000   158.0000 </r>
       <r>   -11.1259     8.0112   158.8019 </r>
       <r>   -11.0257    23.3047   162.0000 </r>
       <r>   -10.9256    19.9793   164.0000 </r>
       <r>   -10.8255    40.5033   168.0545 </r>
       <r>   -10.7254     0.0000   170.0000 </r>
       <r>   -10.6253     0.0000   170.0000 </r>
       <r>   -10.5252     0.0000   170.0000 </r>
       <r>   -10.4251    19.9792   172.0000 </r>
       <r>   -10.3250    28.2788   174.8308 </r>
       <r>   -10.2249    19.9795   178.0000 </r>
       <r>   -10.1248    69.9018   184.9974 </r>
       <r>   -10.0247     2.9331   186.2936 </r>
       <r>    -9.9246     5.6598   188.0000 </r>
       <r>    -9.8245    40.2012   192.0243 </r>
       <r>    -9.7244    48.8508   197.9570 </r>
       <r>    -9.6243    61.5583   204.1622 </r>
       <r>    -9.5242    19.6647   208.0023 </r>
       <r>    -9.4241    25.6714   210.9033 </r>
       <r>    -9.3240    26.9716   214.0000 </r>
       <r>    -9.2239    19.9793   216.0000 </r>
       <r>    -9.1238    32.4727   219.2506 </r>
       <r>    -9.0237    39.9574   224.0000 </r>
       <r>    -8.9236    51.4886   229.1542 </r>
       <r>    -8.8235    34.0632   232.9766 </r>
       <r>    -8.7234     0.3717   234.0372 </r>
       <r>    -8.6233     9.3229   236.0000 </r>
       <r>    -8.5232     0.0000   236.0000 </r>
       <r>    -8.4231     0.0000   236.0000 </r>
       <r>    -8.3230     0.0000   236.0000 </r>
       <r>    -8.2229    26.6558   238.6683 </r>
       <r>    -8.1227    21.8452   241.2537 </r>
       <r>    -8.0226    27.7927   244.3489 </r>
       <r>    -7.9225    39.9580   250.0000 </r>
       <r>    -7.8224     3.0290   250.3032 </r>
       <r>    -7.7223    18.2950   256.0000 </r>
       <r>    -7.6222     0.0000   256.0000 </r>
       <r>    -7.5221    59.9380   262.0000 </r>
       <r>    -7.4220    20.1291   264.0150 </r>
       <r>    -7.3219    19.9567   268.0000 </r>
       <r>    -7.2218     0.0000   268.0000 </r>
       <r>    -7.1217     0.0000   268.0000 </r>
       <r>    -7.0216     8.2350   268.8244 </r>
       <r>    -6.9215     0.0000   274.0000 </r>
       <r>    -6.8214     0.0000   274.0000 </r>
       <r>    -6.7213     0.0000   274.0000 </r>
       <r>    -6.6212    39.9587   278.0000 </r>
       <r>    -6.5211    39.9587   282.0000 </r>
       <r>    -6.4210     0.0000   282.0000 </r>
       <r>    -6.3209     0.0000   282.0000 </r>
       <r>    -6.2208    49.1115   286.9162 </r>
       <r>    -6.1207     0.0000   288.0000 </r>
       <r>    -6.0206     0.0000   288.0000 </r>
       <r>    -5.9205     0.0000   288.0000 </r>
       <r>    -5.8204    59.8595   293.9921 </r>
       <r>    -5.7203     0.0000   294.0000 </r>
       <r>    -5.6202     0.0000   294.0000 </r>
       <r>    -5.5201     0.0000   294.0000 </r>
       <r>    -5.4200     0.0000   294.0000 </r>
       <r>    -5.3199     0.0000   294.0000 </r>
       <r>    -5.2197     0.0000   294.0000 </r>
       <r>    -5.1196     0.0000   294.0000 </r>
       <r>    -5.0195     0.0000   294.0000 </r>
       <r>    -4.9194     0.0000   294.0000 </r>
       <r>    -4.8193    34.9038   297.4940 </r>
       <r>    -4.7192     1.1423   300.1143 </r>
       <r>    -4.6191    19.9754   306.0000 </r>
       <r>    -4.5190     0.0000   306.0000 </r>
       <r>    -4.4189     0.0000   306.0000 </r>
       <r>    -4.3188     0.0000   306.0000 </r>
       <r>    -4.2187     0.0000   306.0000 </r>
       <r>    -4.1186     0.0000   306.0000 </r>
       <r>    -4.0185     0.0000   306.0000 </r>
       <r>    -3.9184     0.0043   306.0004 </r>
       <r>    -3.8183    59.9337   312.0000 </r>
       <r>    -3.7182     0.0000   312.0000 </r>
       <r>    -3.6181     0.0000   312.0000 </r>
       <r>    -3.5180     0.0000   312.0000 </r>
       <r>    -3.4179     0.0000   312.0000 </r>
       <r>    -3.3178     0.0000   312.0000 </r>
       <r>    -3.2177     0.0000   312.0000 </r>
       <r>    -3.1176     0.0000   312.0000 </r>
       <r>    -3.0175     0.0000   312.0000 </r>
       <r>    -2.9174     0.0000   312.0000 </r>
       <r>    -2.8173     0.0000   312.0000 </r>
       <r>    -2.7172     0.0000   312.0000 </r>
       <r>    -2.6171     0.0000   312.0000 </r>
       <r>    -2.5170    39.8051   315.9846 </r>
       <r>    -2.4169    39.9584   320.0000 </r>
       <r>    -2.3167     0.0000   320.0000 </r>
       <r>    -2.2166     0.0000   320.0000 </r>
       <r>    -2.1165     0.0000   320.0000 </r>
       <r>    -2.0164     0.0000   320.0000 </r>
       <r>    -1.9163     0.0000   320.0000 </r>
       <r>    -1.8162     0.0000   320.0000 </r>
       <r>    -1.7161     0.0000   320.0000 </r>
       <r>    -1.6160     0.0000   320.0000 </r>
       <r>    -1.5159     0.0000   320.0000 </r>
       <r>    -1.4158     0.0000   320.0000 </r>
       <r>    -1.3157     0.0000   320.0000 </r>
       <r>    -1.2156     0.0000   320.0000 </r>
       <r>    -1.1155     0.0000   320.0000 </r>
       <r>    -1.0154     0.0000   320.0000 </r>
       <r>    -0.9153     0.0000   320.0000 </r>
       <r>    -0.8152    18.3207   321.8340 </r>
       <r>    -0.7151    49.5170   330.9568 </r>
       <r>    -0.6150     0.0000   332.0000 </r>
       <r>    -0.5149    39.9310   335.9972 </r>
       <r>    -0.4148    13.1824   337.3196 </r>
       <r>    -0.3147    20.0198   342.0045 </r>
       <r>    -0.2146    45.6889   347.1408 </r>
       <r>    -0.1145    13.6515   350.0000 </r>
       <r>    -0.0144    19.9411   351.9962 </r>
       <r>     0.0857    57.2091   357.7269 </r>
       <r>     0.1858    19.9787   360.0000 </r>
       <r>     0.2859    45.0307   364.5077 </r>
       <r>     0.3860    48.7161   369.6434 </r>
       <r>     0.4861    53.7491   376.2476 </r>
       <r>     0.5863    65.2910   384.6362 </r>
       <r>     0.6864    68.3259   393.1400 </r>
       <r>     0.7865    74.9158   403.3330 </r>
       <r>     0.8866    75.3131   412.3728 </r>
       <r>     0.9867    78.1384   422.7227 </r>
       <r>     1.0868    86.3155   434.1076 </r>
       <r>     1.1869    86.1721   444.9602 </r>
       <r>     1.2870    11.9852   448.0000 </r>
       <r>     1.3871     0.0000   448.0000 </r>
       <r>     1.4872     0.0000   448.0000 </r>
       <r>     1.5873     0.0000   448.0000 </r>
       <r>     1.6874     0.0000   448.0000 </r>
       <r>     1.7875     0.0000   448.0000 </r>
       <r>     1.8876     0.0000   448.0000 </r>
       <r>     1.9877     0.0000   448.0000 </r>
       <r>     2.0878     0.0000   448.0000 </r>
       <r>     2.1879     0.0000   448.0000 </r>
       <r>     2.2880     0.0000   448.0000 </r>
       <r>     2.3881     0.0000   448.0000 </r>
       <r>     2.4882     0.0000   448.0000 </r>
       <r>     2.5883     0.0000   448.0000 </r>
      </set>
     </set>
    </array>
   </total>
  </dos>
 </calculation>
 <structure name="finalpos" >
  <crystal>
   <varray name="basis" >
    <v>      29.40898826       0.04859794       0.00000000 </v>
    <v>     -14.66202610      25.46096712       0.00000000 </v>
    <v>       0.00000000       0.00000000      20.00000000 </v>
   </varray>
   <i name="volume">  14989.87655117 </i>
   <varray name="rec_basis" >
    <v>       0.03397088       0.01956257       0.00000000 </v>
    <v>      -0.00006484       0.03923847       0.00000000 </v>
    <v>       0.00000000       0.00000000       0.05000000 </v>
   </varray>
  </crystal>
  <varray name="positions" >
   <v>       0.38405012       0.70461726       0.54385057 </v>
   <v>       0.29397387       0.68065661       0.54399008 </v>
   <v>       0.31815243       0.61453435       0.54441748 </v>
   <v>       0.61541747       0.29296802       0.47408880 </v>
   <v>       0.70670351       0.32183475       0.47440563 </v>
   <v>       0.67758279       0.38427592       0.47436726 </v>
   <v>       0.60128406       0.04474378       0.55244241 </v>
   <v>       0.41552345       0.80671873       0.53857764 </v>
   <v>       0.44121845       0.39641573       0.54960379 </v>
   <v>       0.38865120       0.58264594       0.54040566 </v>
   <v>       0.95342701       0.55648693       0.55212624 </v>
   <v>       0.19174734       0.61007557       0.54303173 </v>
   <v>       0.59176125       0.19169813       0.45822985 </v>
   <v>       0.60027309       0.40851306       0.46139597 </v>
   <v>       0.80788634       0.39949330       0.45845446 </v>
   <v>       0.36811516       0.65292873       0.54420946 </v>
   <v>       0.34557095       0.71625724       0.54376318 </v>
   <v>       0.28247087       0.63060374       0.54470119 </v>
   <v>       0.22581029       0.58833420       0.54602507 </v>
   <v>       0.41037693       0.63832449       0.54450772 </v>
   <v>       0.62851775       0.34390548       0.47477721 </v>
   <v>       0.65582833       0.28415212       0.47452158 </v>
   <v>       0.71532758       0.37099390       0.47464145 </v>
   <v>       0.77091364       0.41528040       0.47829900 </v>
   <v>       0.58418076       0.35532674       0.47901336 </v>
   <v>       0.59575901       0.11703213       0.50476947 </v>
   <v>       0.57186760       0.06310250       0.51905378 </v>
   <v>       0.51933655       0.02873185       0.49894593 </v>
   <v>       0.49266564       0.97141024       0.51006182 </v>
   <v>       0.51782813       0.94189062       0.49807044 </v>
   <v>       0.49227390       0.88792034       0.50723813 </v>
   <v>       0.43951415       0.86016449       0.52826882 </v>
   <v>       0.52033617       0.40321034       0.50487737 </v>
   <v>       0.48971444       0.42668283       0.51846978 </v>
   <v>       0.50803356       0.47967374       0.49998178 </v>
   <v>       0.47705107       0.50612238       0.51093408 </v>
   <v>       0.42268204       0.48108809       0.49778604 </v>
   <v>       0.39398857       0.50643613       0.50722736 </v>
   <v>       0.41839095       0.55887135       0.52963766 </v>
   <v>       0.88186784       0.47839095       0.50465281 </v>
   <v>       0.93566365       0.50870052       0.51910917 </v>
   <v>       0.97049528       0.49079226       0.49957219 </v>
   <v>       0.02764979       0.52166355       0.51131101 </v>
   <v>       0.05668077       0.57628635       0.49956924 </v>
   <v>       0.11046271       0.60497503       0.50974381 </v>
   <v>       0.13849067       0.58032146       0.53153423 </v>
   <v>       0.35998494       0.77305621       0.54353442 </v>
   <v>       0.64438863       0.22838345       0.47830042 </v>
   <v>       0.56826053       0.13865944       0.47329851 </v>
   <v>       0.49255239       0.05159179       0.46790245 </v>
   <v>       0.51541317       0.10495530       0.45542247 </v>
   <v>       0.41349805       0.88889624       0.53899412 </v>
   <v>       0.43995946       0.94320759       0.53059079 </v>
   <v>       0.57012273       0.43151521       0.47560985 </v>
   <v>       0.55827941       0.50720055       0.47101385 </v>
   <v>       0.58929154       0.48472424       0.45917121 </v>
   <v>       0.47285915       0.58483026       0.54137013 </v>
   <v>       0.50096956       0.55855955       0.53275224 </v>
   <v>       0.86082749       0.42927163       0.47349079 </v>
   <v>       0.94824948       0.44119823       0.46870538 </v>
   <v>       0.89501640       0.41045366       0.45597856 </v>
   <v>       0.11029559       0.52563504       0.54192112 </v>
   <v>       0.05615237       0.49748993       0.53251538 </v>
   <v>       0.34354493       0.77990239       0.58987543 </v>
   <v>       0.22002684       0.56511093       0.59212228 </v>
   <v>       0.43363571       0.65513075       0.59071374 </v>
   <v>       0.65249013       0.22255045       0.53107933 </v>
   <v>       0.77667041       0.42939688       0.53098137 </v>
   <v>       0.56938279       0.34566803       0.53130360 </v>
   <v>       0.55805145       0.96170165       0.47953467 </v>
   <v>       0.51289852       0.86634091       0.49700451 </v>
   <v>       0.63656270       0.14202408       0.51967134 </v>
   <v>       0.63095840       0.07186763       0.58093160 </v>
   <v>       0.58011750       0.00976866       0.57616772 </v>
   <v>       0.43598306       0.78793802       0.52921978 </v>
   <v>       0.40274178       0.44116574       0.47810039 </v>
   <v>       0.35203650       0.48588619       0.49611927 </v>
   <v>       0.50448222       0.36209486       0.51858767 </v>
   <v>       0.43808200       0.36598795       0.57716059 </v>
   <v>       0.42683278       0.41702471       0.57366013 </v>
   <v>       0.34972334       0.56229599       0.52979898 </v>
   <v>       0.03665338       0.59642912       0.48045774 </v>
   <v>       0.13169283       0.64713480       0.49972513 </v>
   <v>       0.85649472       0.49396660       0.51920119 </v>
   <v>       0.92597539       0.55894172       0.58016237 </v>
   <v>       0.98821921       0.57039925       0.57632648 </v>
   <v>       0.21014136       0.64901021       0.53214500 </v>
   <v>       0.33823869       0.77872292       0.50202891 </v>
   <v>       0.21941416       0.56094385       0.50418910 </v>
   <v>       0.43768907       0.65966262       0.50282116 </v>
   <v>       0.67380979       0.22470106       0.44805584 </v>
   <v>       0.77428829       0.44815840       0.44781225 </v>
   <v>       0.55171193       0.32676038       0.44731080 </v>
   <v>       0.45218256       0.02574219       0.45181700 </v>
   <v>       0.49338649       0.12079084       0.43017420 </v>
   <v>       0.37272169       0.86901305       0.55540692 </v>
   <v>       0.41911638       0.96450829       0.54095476 </v>
   <v>       0.56795759       0.20748770       0.45465743 </v>
   <v>       0.57292565       0.54790140       0.45607742 </v>
   <v>       0.62763286       0.50736223       0.43552899 </v>
   <v>       0.49331406       0.62537688       0.55884401 </v>
   <v>       0.54284900       0.57932313       0.54399818 </v>
   <v>       0.63972967       0.43237464       0.45807714 </v>
   <v>       0.97448217       0.42691057       0.45299918 </v>
   <v>       0.87965334       0.37263393       0.43088093 </v>
   <v>       0.13044285       0.50502591       0.55889115 </v>
   <v>       0.03521353       0.45538696       0.54262147 </v>
   <v>       0.79246329       0.35999191       0.45500540 </v>
  </varray>
 </structure>
</modeling>
