<?xml version="1.0" encoding="ISO-8859-1"?>
<modeling>
 <generator>
  <i name="program" type="string">vasp </i>
  <i name="version" type="string">5.4.4.18Apr17-6-g9f103f2a35  </i>
  <i name="subversion" type="string">(build Jun 07 2020 16:50:00) complex            parallel </i>
  <i name="platform" type="string">LinuxIFC </i>
  <i name="date" type="string">2023 03 02 </i>
  <i name="time" type="string">19:00:10 </i>
 </generator>
 <incar>
  <i type="string" name="SYSTEM">Simulation for cell shape cell volume r</i>
  <i type="int" name="ISTART">     1</i>
  <i type="string" name="PREC">high</i>
  <i type="string" name="ALGO">48</i>
  <i type="int" name="ICHARG">    11</i>
  <i type="int" name="NELM">   200</i>
  <i type="int" name="IBRION">    -1</i>
  <i name="EDIFF">      0.00001000</i>
  <i name="EDIFFG">     -0.01000000</i>
  <i type="int" name="NSW">     0</i>
  <i type="int" name="ISIF">     2</i>
  <i name="ENCUT">    500.00000000</i>
  <i name="POTIM">      0.30000000</i>
  <i type="string" name="LREAL">A</i>
  <i type="int" name="ISMEAR">     0</i>
  <i name="SIGMA">      0.01000000</i>
  <i type="int" name="NWRITE">     0</i>
  <i type="logical" name="LWAVE"> F  </i>
  <i type="logical" name="LCHARG"> F  </i>
  <v type="int" name="KPOINT_BSE">    -1     0     0     0</v>
  <i type="int" name="NELM">   200</i>
  <i type="string" name="GGA">PE</i>
 </incar>
 <structure name="primitive_cell" >
  <crystal>
   <varray name="basis" >
    <v>      21.73915125      -0.01347458       0.00000000 </v>
    <v>     -10.87121125      18.82425996       0.00000000 </v>
    <v>       0.00000000       0.00000000      20.00000000 </v>
   </varray>
   <i name="volume">   8181.53899131 </i>
   <varray name="rec_basis" >
    <v>       0.04601643       0.02657498       0.00000000 </v>
    <v>       0.00003294       0.05314196       0.00000000 </v>
    <v>       0.00000000       0.00000000       0.05000000 </v>
   </varray>
  </crystal>
  <varray name="positions" >
   <v>      -0.07077343      -0.13412506      -0.43025066 </v>
   <v>      -0.03587307      -0.07697472      -0.42961744 </v>
   <v>      -0.06680202      -0.03336650      -0.42967738 </v>
   <v>       0.03798170      -0.04737056      -0.43060513 </v>
   <v>      -0.03044398      -0.20306289      -0.46155336 </v>
   <v>      -0.18167416      -0.13933951      -0.42412517 </v>
   <v>      -0.14499693      -0.06872939      -0.43470451 </v>
   <v>       0.07339510      -0.09008341      -0.43638740 </v>
   <v>       0.04165795      -0.16226368      -0.45729642 </v>
   <v>      -0.20106099      -0.26864246      -0.42636093 </v>
   <v>      -0.11571648      -0.29602786      -0.48972859 </v>
   <v>      -0.05796094      -0.27345498      -0.48844212 </v>
   <v>      -0.21979952      -0.24842467      -0.34508643 </v>
   <v>      -0.02249042       0.04051786      -0.42953068 </v>
   <v>       0.08159831       0.02722275      -0.43043862 </v>
   <v>      -0.25025649      -0.17741115      -0.43750378 </v>
   <v>      -0.24383689      -0.27545261      -0.39244672 </v>
   <v>       0.05207585       0.07151827      -0.43061743 </v>
   <v>      -0.18530476      -0.03689708      -0.45560708 </v>
   <v>      -0.03727179      -0.27155759       0.46099524 </v>
   <v>      -0.28555473      -0.24794095      -0.42189907 </v>
   <v>      -0.04392413      -0.30572928      -0.45647104 </v>
   <v>       0.14403045      -0.05593487      -0.42614029 </v>
   <v>       0.08047025      -0.19076002      -0.47509618 </v>
   <v>       0.13871817       0.04952326      -0.43165625 </v>
   <v>      -0.04476889       0.07534838      -0.43014222 </v>
   <v>      -0.28144551      -0.33193712      -0.38389444 </v>
   <v>      -0.28773095      -0.14687031      -0.46818288 </v>
   <v>      -0.25263591      -0.07566171      -0.47335625 </v>
   <v>      -0.15388382       0.03519731      -0.46017245 </v>
   <v>       0.18224323      -0.08616133      -0.43976056 </v>
   <v>       0.15172018      -0.15436525      -0.47015052 </v>
   <v>       0.09487850       0.14966818      -0.43666560 </v>
   <v>      -0.36973387      -0.28990700       0.49998417 </v>
   <v>      -0.35917863      -0.18511214      -0.49848724 </v>
   <v>       0.06106806       0.18640869      -0.42608772 </v>
   <v>      -0.19664029       0.06249921      -0.48770619 </v>
   <v>       0.20715626       0.15806398      -0.46339711 </v>
   <v>       0.09541190      -0.29096361       0.49927294 </v>
   <v>       0.25293772       0.01544632      -0.34744480 </v>
   <v>       0.25287453      -0.05034535      -0.42453133 </v>
   <v>       0.16681331       0.18977933      -0.45835571 </v>
   <v>      -0.39281518      -0.25779703       0.48486655 </v>
   <v>      -0.21530646       0.04132607       0.46184268 </v>
   <v>       0.27279565       0.05467586      -0.42860328 </v>
   <v>       0.19011892      -0.18755416       0.49992290 </v>
   <v>       0.27995879       0.01878986      -0.39489294 </v>
   <v>      -0.24305839       0.04879696      -0.45598453 </v>
   <v>      -0.16133103       0.12022969      -0.48942405 </v>
   <v>       0.15082367      -0.26060585       0.48415363 </v>
   <v>      -0.39267673      -0.14565368       0.48560866 </v>
   <v>      -0.36766729      -0.09037166      -0.49887615 </v>
   <v>      -0.04914122       0.20510672      -0.42804835 </v>
   <v>       0.09144743       0.25483612      -0.44006856 </v>
   <v>      -0.00928902       0.22501249      -0.34714728 </v>
   <v>       0.29942045       0.16522420      -0.49303192 </v>
   <v>       0.27718761       0.20065251      -0.49119029 </v>
   <v>       0.19548156       0.25710848      -0.47625475 </v>
   <v>       0.26295196      -0.14844881       0.48376769 </v>
   <v>       0.29488971      -0.09314560       0.49871464 </v>
   <v>      -0.45615966      -0.28911348       0.44814771 </v>
   <v>       0.33652199       0.03809243      -0.38643102 </v>
   <v>      -0.01288506       0.24837878      -0.39468725 </v>
   <v>       0.27459987       0.21932692       0.45838308 </v>
   <v>       0.15943001       0.29222836      -0.47093340 </v>
   <v>       0.02490927      -0.44562970      -0.37771414 </v>
   <v>       0.18233479      -0.29322230       0.44895939 </v>
   <v>       0.05605905       0.29000856      -0.42480341 </v>
   <v>       0.07663737      -0.41361297      -0.46614658 </v>
   <v>      -0.47753905      -0.48471175      -0.43113969 </v>
   <v>       0.31016543       0.24706506      -0.45952920 </v>
   <v>      -0.45646138      -0.17682769       0.44979906 </v>
   <v>       0.49980045      -0.36629751       0.43573063 </v>
   <v>      -0.48592440      -0.24773679       0.42912988 </v>
   <v>       0.48712837      -0.41208581       0.48597718 </v>
   <v>      -0.03187485       0.28588658      -0.38633497 </v>
   <v>       0.05060659      -0.46467626      -0.41250708 </v>
   <v>       0.29465357      -0.18053686       0.44779775 </v>
   <v>       0.47184421      -0.45321311      -0.38764357 </v>
   <v>       0.15019916      -0.37029347       0.43620574 </v>
   <v>       0.25344326      -0.25176528       0.42885572 </v>
   <v>       0.46919277      -0.49952990      -0.41260982 </v>
   <v>       0.11342600      -0.42436559       0.48472113 </v>
   <v>       0.01215895       0.48203828      -0.43106580 </v>
   <v>       0.19275687       0.36385431       0.49910589 </v>
   <v>      -0.47109916      -0.07145979      -0.46492222 </v>
   <v>       0.09449406      -0.46717827      -0.38785618 </v>
   <v>       0.46420605      -0.27183038       0.40155238 </v>
   <v>       0.49876455      -0.14456235       0.43707973 </v>
   <v>       0.45713431      -0.39366408       0.37749708 </v>
   <v>       0.42949656      -0.47621300       0.48468103 </v>
   <v>       0.44986723       0.45541032      -0.37813111 </v>
   <v>      -0.45180214      -0.02090217      -0.37589746 </v>
   <v>       0.47922305      -0.35590287       0.31962310 </v>
   <v>       0.09852686       0.37438461       0.49784028 </v>
   <v>       0.29601808       0.37241040       0.49863565 </v>
   <v>       0.41828322       0.47594794      -0.46636330 </v>
   <v>       0.17153584      -0.38904570       0.38054262 </v>
   <v>       0.27780480      -0.27758207       0.40182472 </v>
   <v>       0.37196346      -0.14738118       0.43605338 </v>
   <v>       0.48143401      -0.10804620       0.48579498 </v>
   <v>       0.15381361       0.39768092       0.48290902 </v>
   <v>       0.26581378       0.39756033       0.48342011 </v>
   <v>      -0.49636399      -0.04604898      -0.41097568 </v>
   <v>       0.11999919      -0.48192981       0.48558302 </v>
   <v>       0.41730070      -0.11464088       0.48668455 </v>
   <v>       0.45886000      -0.16537937       0.38125324 </v>
   <v>       0.39495119      -0.45276713       0.38046223 </v>
   <v>       0.45699036      -0.09020812      -0.38684503 </v>
   <v>       0.37576078      -0.49319939       0.43592349 </v>
   <v>       0.48909383      -0.00726253      -0.42906749 </v>
   <v>       0.36261560      -0.17731182       0.31979182 </v>
   <v>       0.16849122      -0.45115712       0.37714467 </v>
   <v>       0.42937685      -0.38138242       0.26514082 </v>
   <v>       0.39983935      -0.16222956       0.37794514 </v>
   <v>       0.45643004      -0.34406523       0.22411930 </v>
   <v>       0.15308814      -0.49424226       0.43509298 </v>
   <v>       0.18607680       0.46151627       0.44693594 </v>
   <v>       0.29863252       0.46179250       0.44832483 </v>
   <v>       0.16768323      -0.40916923       0.25055216 </v>
   <v>       0.41562285      -0.43554985       0.25058610 </v>
   <v>       0.38011765      -0.38182131       0.27882057 </v>
   <v>       0.44283383      -0.16064280       0.25118036 </v>
   <v>       0.25733000       0.49152531       0.42812628 </v>
   <v>       0.38882270      -0.25016305       0.27877897 </v>
   <v>       0.25712427      -0.37329940       0.27846529 </v>
   <v>       0.35153987      -0.21118306       0.22408166 </v>
   <v>       0.18431759      -0.47276336       0.31907814 </v>
   <v>       0.20834359      -0.42268030       0.26478945 </v>
   <v>       0.38853528      -0.20121419       0.26531098 </v>
   <v>       0.28329643      -0.45823313       0.40115619 </v>
   <v>       0.21863806      -0.44942972       0.22353178 </v>
  </varray>
 </structure>
 <varray name="primitive_index" >
  <v type="int" >        1 </v>
  <v type="int" >       75 </v>
  <v type="int" >       91 </v>
  <v type="int" >       73 </v>
  <v type="int" >       49 </v>
  <v type="int" >       69 </v>
  <v type="int" >      109 </v>
  <v type="int" >       77 </v>
  <v type="int" >       76 </v>
  <v type="int" >       40 </v>
  <v type="int" >        3 </v>
  <v type="int" >       78 </v>
  <v type="int" >       41 </v>
  <v type="int" >       90 </v>
  <v type="int" >       74 </v>
  <v type="int" >      123 </v>
  <v type="int" >      124 </v>
  <v type="int" >       89 </v>
  <v type="int" >      108 </v>
  <v type="int" >        4 </v>
  <v type="int" >       57 </v>
  <v type="int" >        5 </v>
  <v type="int" >       61 </v>
  <v type="int" >       62 </v>
  <v type="int" >        2 </v>
  <v type="int" >       16 </v>
  <v type="int" >       39 </v>
  <v type="int" >      122 </v>
  <v type="int" >       64 </v>
  <v type="int" >       52 </v>
  <v type="int" >       81 </v>
  <v type="int" >       80 </v>
  <v type="int" >      106 </v>
  <v type="int" >       21 </v>
  <v type="int" >      103 </v>
  <v type="int" >       68 </v>
  <v type="int" >      110 </v>
  <v type="int" >       51 </v>
  <v type="int" >       11 </v>
  <v type="int" >        9 </v>
  <v type="int" >       50 </v>
  <v type="int" >      105 </v>
  <v type="int" >      102 </v>
  <v type="int" >       27 </v>
  <v type="int" >        8 </v>
  <v type="int" >       79 </v>
  <v type="int" >       82 </v>
  <v type="int" >       28 </v>
  <v type="int" >       26 </v>
  <v type="int" >       86 </v>
  <v type="int" >      104 </v>
  <v type="int" >       22 </v>
  <v type="int" >       37 </v>
  <v type="int" >      120 </v>
  <v type="int" >       38 </v>
  <v type="int" >        6 </v>
  <v type="int" >      107 </v>
  <v type="int" >       63 </v>
  <v type="int" >       85 </v>
  <v type="int" >       10 </v>
  <v type="int" >      101 </v>
  <v type="int" >        7 </v>
  <v type="int" >      121 </v>
  <v type="int" >       24 </v>
  <v type="int" >      119 </v>
  <v type="int" >       14 </v>
  <v type="int" >       83 </v>
  <v type="int" >       56 </v>
  <v type="int" >       58 </v>
  <v type="int" >       44 </v>
  <v type="int" >       25 </v>
  <v type="int" >       99 </v>
  <v type="int" >      114 </v>
  <v type="int" >      100 </v>
  <v type="int" >       71 </v>
  <v type="int" >       36 </v>
  <v type="int" >       88 </v>
  <v type="int" >       84 </v>
  <v type="int" >       45 </v>
  <v type="int" >      126 </v>
  <v type="int" >       92 </v>
  <v type="int" >      129 </v>
  <v type="int" >      125 </v>
  <v type="int" >       15 </v>
  <v type="int" >       97 </v>
  <v type="int" >       60 </v>
  <v type="int" >       42 </v>
  <v type="int" >       23 </v>
  <v type="int" >      131 </v>
  <v type="int" >      115 </v>
  <v type="int" >      127 </v>
  <v type="int" >       43 </v>
  <v type="int" >       46 </v>
  <v type="int" >       54 </v>
  <v type="int" >       18 </v>
  <v type="int" >       19 </v>
  <v type="int" >       59 </v>
  <v type="int" >       65 </v>
  <v type="int" >       17 </v>
  <v type="int" >      117 </v>
  <v type="int" >      130 </v>
  <v type="int" >       96 </v>
  <v type="int" >       98 </v>
  <v type="int" >      132 </v>
  <v type="int" >       70 </v>
  <v type="int" >       72 </v>
  <v type="int" >       67 </v>
  <v type="int" >       66 </v>
  <v type="int" >       48 </v>
  <v type="int" >      128 </v>
  <v type="int" >       47 </v>
  <v type="int" >       55 </v>
  <v type="int" >      112 </v>
  <v type="int" >      116 </v>
  <v type="int" >      118 </v>
  <v type="int" >       32 </v>
  <v type="int" >      111 </v>
  <v type="int" >       95 </v>
  <v type="int" >       93 </v>
  <v type="int" >       30 </v>
  <v type="int" >       33 </v>
  <v type="int" >       34 </v>
  <v type="int" >       13 </v>
  <v type="int" >       94 </v>
  <v type="int" >       35 </v>
  <v type="int" >       31 </v>
  <v type="int" >       12 </v>
  <v type="int" >       53 </v>
  <v type="int" >      113 </v>
  <v type="int" >       87 </v>
  <v type="int" >       20 </v>
  <v type="int" >       29 </v>
 </varray>
 <kpoints>
  <generation param="listgenerated">
   <i name="divisions" type="int">      20 </i>
   <v>       0.00000000       0.00000000       0.00000000 </v>
   <v>       0.50000000       0.00000000       0.00000000 </v>
   <v>       0.33333333       0.33333333       0.00000000 </v>
   <v>       0.00000000       0.00000000       0.00000000 </v>
  </generation>
  <varray name="kpointlist" >
   <v>       0.00000000       0.00000000       0.00000000 </v>
   <v>       0.02631579       0.00000000       0.00000000 </v>
   <v>       0.05263158       0.00000000       0.00000000 </v>
   <v>       0.07894737       0.00000000       0.00000000 </v>
   <v>       0.10526316       0.00000000       0.00000000 </v>
   <v>       0.13157895       0.00000000       0.00000000 </v>
   <v>       0.15789474       0.00000000       0.00000000 </v>
   <v>       0.18421053       0.00000000       0.00000000 </v>
   <v>       0.21052632       0.00000000       0.00000000 </v>
   <v>       0.23684211       0.00000000       0.00000000 </v>
   <v>       0.26315789       0.00000000       0.00000000 </v>
   <v>       0.28947368       0.00000000       0.00000000 </v>
   <v>       0.31578947       0.00000000       0.00000000 </v>
   <v>       0.34210526       0.00000000       0.00000000 </v>
   <v>       0.36842105       0.00000000       0.00000000 </v>
   <v>       0.39473684       0.00000000       0.00000000 </v>
   <v>       0.42105263       0.00000000       0.00000000 </v>
   <v>       0.44736842       0.00000000       0.00000000 </v>
   <v>       0.47368421       0.00000000       0.00000000 </v>
   <v>       0.50000000       0.00000000       0.00000000 </v>
   <v>       0.50000000       0.00000000       0.00000000 </v>
   <v>       0.49122807       0.01754386       0.00000000 </v>
   <v>       0.48245614       0.03508772       0.00000000 </v>
   <v>       0.47368421       0.05263158       0.00000000 </v>
   <v>       0.46491228       0.07017544       0.00000000 </v>
   <v>       0.45614035       0.08771930       0.00000000 </v>
   <v>       0.44736842       0.10526316       0.00000000 </v>
   <v>       0.43859649       0.12280702       0.00000000 </v>
   <v>       0.42982456       0.14035088       0.00000000 </v>
   <v>       0.42105263       0.15789474       0.00000000 </v>
   <v>       0.41228070       0.17543860       0.00000000 </v>
   <v>       0.40350877       0.19298246       0.00000000 </v>
   <v>       0.39473684       0.21052632       0.00000000 </v>
   <v>       0.38596491       0.22807018       0.00000000 </v>
   <v>       0.37719298       0.24561404       0.00000000 </v>
   <v>       0.36842105       0.26315789       0.00000000 </v>
   <v>       0.35964912       0.28070175       0.00000000 </v>
   <v>       0.35087719       0.29824561       0.00000000 </v>
   <v>       0.34210526       0.31578947       0.00000000 </v>
   <v>       0.33333333       0.33333333       0.00000000 </v>
   <v>       0.33333333       0.33333333       0.00000000 </v>
   <v>       0.31578947       0.31578947       0.00000000 </v>
   <v>       0.29824561       0.29824561       0.00000000 </v>
   <v>       0.28070175       0.28070175       0.00000000 </v>
   <v>       0.26315789       0.26315789       0.00000000 </v>
   <v>       0.24561404       0.24561404       0.00000000 </v>
   <v>       0.22807018       0.22807018       0.00000000 </v>
   <v>       0.21052632       0.21052632       0.00000000 </v>
   <v>       0.19298246       0.19298246       0.00000000 </v>
   <v>       0.17543860       0.17543860       0.00000000 </v>
   <v>       0.15789474       0.15789474       0.00000000 </v>
   <v>       0.14035088       0.14035088       0.00000000 </v>
   <v>       0.12280702       0.12280702       0.00000000 </v>
   <v>       0.10526316       0.10526316       0.00000000 </v>
   <v>       0.08771930       0.08771930       0.00000000 </v>
   <v>       0.07017544       0.07017544       0.00000000 </v>
   <v>       0.05263158       0.05263158       0.00000000 </v>
   <v>       0.03508772       0.03508772       0.00000000 </v>
   <v>       0.01754386       0.01754386       0.00000000 </v>
   <v>       0.00000000       0.00000000       0.00000000 </v>
  </varray>
  <varray name="weights" >
   <v>       0.01666667 </v>
   <v>       0.01666667 </v>
   <v>       0.01666667 </v>
   <v>       0.01666667 </v>
   <v>       0.01666667 </v>
   <v>       0.01666667 </v>
   <v>       0.01666667 </v>
   <v>       0.01666667 </v>
   <v>       0.01666667 </v>
   <v>       0.01666667 </v>
   <v>       0.01666667 </v>
   <v>       0.01666667 </v>
   <v>       0.01666667 </v>
   <v>       0.01666667 </v>
   <v>       0.01666667 </v>
   <v>       0.01666667 </v>
   <v>       0.01666667 </v>
   <v>       0.01666667 </v>
   <v>       0.01666667 </v>
   <v>       0.01666667 </v>
   <v>       0.01666667 </v>
   <v>       0.01666667 </v>
   <v>       0.01666667 </v>
   <v>       0.01666667 </v>
   <v>       0.01666667 </v>
   <v>       0.01666667 </v>
   <v>       0.01666667 </v>
   <v>       0.01666667 </v>
   <v>       0.01666667 </v>
   <v>       0.01666667 </v>
   <v>       0.01666667 </v>
   <v>       0.01666667 </v>
   <v>       0.01666667 </v>
   <v>       0.01666667 </v>
   <v>       0.01666667 </v>
   <v>       0.01666667 </v>
   <v>       0.01666667 </v>
   <v>       0.01666667 </v>
   <v>       0.01666667 </v>
   <v>       0.01666667 </v>
   <v>       0.01666667 </v>
   <v>       0.01666667 </v>
   <v>       0.01666667 </v>
   <v>       0.01666667 </v>
   <v>       0.01666667 </v>
   <v>       0.01666667 </v>
   <v>       0.01666667 </v>
   <v>       0.01666667 </v>
   <v>       0.01666667 </v>
   <v>       0.01666667 </v>
   <v>       0.01666667 </v>
   <v>       0.01666667 </v>
   <v>       0.01666667 </v>
   <v>       0.01666667 </v>
   <v>       0.01666667 </v>
   <v>       0.01666667 </v>
   <v>       0.01666667 </v>
   <v>       0.01666667 </v>
   <v>       0.01666667 </v>
   <v>       0.01666667 </v>
  </varray>
 </kpoints>
 <parameters>
  <separator name="general" >
   <i type="string" name="SYSTEM">Simulation for cell shape cell volume r</i>
   <i type="logical" name="LCOMPAT"> F  </i>
  </separator>
  <separator name="electronic" >
   <i type="string" name="PREC">high</i>
   <i name="ENMAX">    500.00000000</i>
   <i name="ENAUG">    644.87300000</i>
   <i name="EDIFF">      0.00001000</i>
   <i type="int" name="IALGO">    38</i>
   <i type="int" name="IWAVPR">    10</i>
   <i type="int" name="NBANDS">   288</i>
   <i name="NELECT">    420.00000000</i>
   <i type="int" name="TURBO">     0</i>
   <i type="int" name="IRESTART">     0</i>
   <i type="int" name="NREBOOT">     0</i>
   <i type="int" name="NMIN">     0</i>
   <i name="EREF">      0.00000000</i>
   <separator name="electronic smearing" >
    <i type="int" name="ISMEAR">     0</i>
    <i name="SIGMA">      0.01000000</i>
    <i name="KSPACING">      0.50000000</i>
    <i type="logical" name="KGAMMA"> T  </i>
   </separator>
   <separator name="electronic projectors" >
    <i type="logical" name="LREAL"> T  </i>
    <v name="ROPT">     -0.00040000     -0.00040000     -0.00040000     -0.00040000</v>
    <i type="int" name="LMAXPAW">  -100</i>
    <i type="int" name="LMAXMIX">     2</i>
    <i type="logical" name="NLSPLINE"> F  </i>
   </separator>
   <separator name="electronic startup" >
    <i type="int" name="ISTART">     1</i>
    <i type="int" name="ICHARG">    11</i>
    <i type="int" name="INIWAV">     1</i>
   </separator>
   <separator name="electronic spin" >
    <i type="int" name="ISPIN">     1</i>
    <i type="logical" name="LNONCOLLINEAR"> F  </i>
    <v name="MAGMOM">      1.00000000      1.00000000      1.00000000      1.00000000      1.00000000      1.00000000      1.00000000      1.00000000      1.00000000      1.00000000      1.00000000      1.00000000      1.00000000      1.00000000      1.00000000      1.00000000      1.00000000      1.00000000      1.00000000      1.00000000
      1.00000000      1.00000000      1.00000000      1.00000000      1.00000000      1.00000000      1.00000000      1.00000000      1.00000000      1.00000000      1.00000000      1.00000000      1.00000000      1.00000000      1.00000000      1.00000000      1.00000000      1.00000000      1.00000000      1.00000000
      1.00000000      1.00000000      1.00000000      1.00000000      1.00000000      1.00000000      1.00000000      1.00000000      1.00000000      1.00000000      1.00000000      1.00000000      1.00000000      1.00000000      1.00000000      1.00000000      1.00000000      1.00000000      1.00000000      1.00000000
      1.00000000      1.00000000      1.00000000      1.00000000      1.00000000      1.00000000      1.00000000      1.00000000      1.00000000      1.00000000      1.00000000      1.00000000      1.00000000      1.00000000      1.00000000      1.00000000      1.00000000      1.00000000      1.00000000      1.00000000
      1.00000000      1.00000000      1.00000000      1.00000000      1.00000000      1.00000000      1.00000000      1.00000000      1.00000000      1.00000000      1.00000000      1.00000000      1.00000000      1.00000000      1.00000000      1.00000000      1.00000000      1.00000000      1.00000000      1.00000000
      1.00000000      1.00000000      1.00000000      1.00000000      1.00000000      1.00000000      1.00000000      1.00000000      1.00000000      1.00000000      1.00000000      1.00000000      1.00000000      1.00000000      1.00000000      1.00000000      1.00000000      1.00000000      1.00000000      1.00000000
      1.00000000      1.00000000      1.00000000      1.00000000      1.00000000      1.00000000      1.00000000      1.00000000      1.00000000      1.00000000      1.00000000      1.00000000</v>
    <i name="NUPDOWN">     -1.00000000</i>
    <i type="logical" name="LSORBIT"> F  </i>
    <v name="SAXIS">      0.00000000      0.00000000      1.00000000</v>
    <i type="logical" name="LSPIRAL"> F  </i>
    <v name="QSPIRAL">      0.00000000      0.00000000      0.00000000</v>
    <i type="logical" name="LZEROZ"> F  </i>
   </separator>
   <separator name="electronic exchange-correlation" >
    <i type="logical" name="LASPH"> F  </i>
    <i type="logical" name="LMETAGGA"> F  </i>
   </separator>
   <separator name="electronic convergence" >
    <i type="int" name="NELM">   200</i>
    <i type="int" name="NELMDL">     0</i>
    <i type="int" name="NELMIN">     2</i>
    <i name="ENINI">    500.00000000</i>
    <separator name="electronic convergence detail" >
     <i type="logical" name="LDIAG"> T  </i>
     <i type="logical" name="LSUBROT"> F  </i>
     <i name="WEIMIN">      0.00000000</i>
     <i name="EBREAK">      0.00000001</i>
     <i name="DEPER">      0.30000000</i>
     <i type="int" name="NRMM">     4</i>
     <i name="TIME">      0.40000000</i>
    </separator>
   </separator>
   <separator name="electronic mixer" >
    <i name="AMIX">      0.40000000</i>
    <i name="BMIX">      1.00000000</i>
    <i name="AMIN">      0.10000000</i>
    <i name="AMIX_MAG">      1.60000000</i>
    <i name="BMIX_MAG">      1.00000000</i>
    <separator name="electronic mixer details" >
     <i type="int" name="IMIX">     4</i>
     <i type="logical" name="MIXFIRST"> F  </i>
     <i type="int" name="MAXMIX">   -45</i>
     <i name="WC">    100.00000000</i>
     <i type="int" name="INIMIX">     1</i>
     <i type="int" name="MIXPRE">     1</i>
     <i type="int" name="MREMOVE">     5</i>
    </separator>
   </separator>
   <separator name="electronic dipolcorrection" >
    <i type="logical" name="LDIPOL"> F  </i>
    <i type="logical" name="LMONO"> F  </i>
    <i type="int" name="IDIPOL">     0</i>
    <i name="EPSILON">      1.00000000</i>
    <v name="DIPOL">   -100.00000000   -100.00000000   -100.00000000</v>
    <i name="EFIELD">      0.00000000</i>
   </separator>
  </separator>
  <separator name="grids" >
   <i type="int" name="NGX">   160</i>
   <i type="int" name="NGY">   160</i>
   <i type="int" name="NGZ">   150</i>
   <i type="int" name="NGXF">   240</i>
   <i type="int" name="NGYF">   240</i>
   <i type="int" name="NGZF">   224</i>
   <i type="logical" name="ADDGRID"> F  </i>
  </separator>
  <separator name="ionic" >
   <i type="int" name="NSW">     0</i>
   <i type="int" name="IBRION">    -1</i>
   <i type="int" name="MDALGO">     0</i>
   <i type="int" name="ISIF">     2</i>
   <i name="PSTRESS">      0.00000000</i>
   <i name="EDIFFG">     -0.01000000</i>
   <i type="int" name="NFREE">     0</i>
   <i name="POTIM">      0.30000000</i>
   <i name="SMASS">     -3.00000000</i>
   <i name="SCALEE">      1.00000000</i>
  </separator>
  <separator name="ionic md" >
   <i name="TEBEG">      0.00010000</i>
   <i name="TEEND">      0.00010000</i>
   <i type="int" name="NBLOCK">     1</i>
   <i type="int" name="KBLOCK">     1</i>
   <i type="int" name="NPACO">   256</i>
   <i name="APACO">     16.00000000</i>
  </separator>
  <separator name="symmetry" >
   <i type="int" name="ISYM">     2</i>
   <i name="SYMPREC">      0.00001000</i>
  </separator>
  <separator name="dos" >
   <i type="int" name="LORBIT">     0</i>
   <v name="RWIGS">     -1.00000000     -1.00000000     -1.00000000     -1.00000000</v>
   <i type="int" name="NEDOS">   301</i>
   <i name="EMIN">     10.00000000</i>
   <i name="EMAX">    -10.00000000</i>
   <i name="EFERMI">      0.00000000</i>
  </separator>
  <separator name="writing" >
   <i type="int" name="NWRITE">     0</i>
   <i type="logical" name="LWAVE"> F  </i>
   <i type="logical" name="LDOWNSAMPLE"> F  </i>
   <i type="logical" name="LCHARG"> F  </i>
   <i type="logical" name="LPARD"> F  </i>
   <i type="logical" name="LVTOT"> F  </i>
   <i type="logical" name="LVHAR"> F  </i>
   <i type="logical" name="LELF"> F  </i>
   <i type="logical" name="LOPTICS"> F  </i>
   <v name="STM">      0.00000000      0.00000000      0.00000000      0.00000000      0.00000000      0.00000000      0.00000000</v>
  </separator>
  <separator name="performance" >
   <i type="int" name="NPAR">    16</i>
   <i type="int" name="NSIM">     4</i>
   <i type="int" name="NBLK">    -1</i>
   <i type="logical" name="LPLANE"> T  </i>
   <i type="logical" name="LSCALAPACK"> T  </i>
   <i type="logical" name="LSCAAWARE"> F  </i>
   <i type="logical" name="LSCALU"> F  </i>
   <i type="logical" name="LASYNC"> F  </i>
   <i type="logical" name="LORBITALREAL"> F  </i>
  </separator>
  <separator name="miscellaneous" >
   <i type="int" name="IDIOT">     3</i>
   <i type="int" name="ISPECIAL">     0</i>
   <i type="logical" name="LMUSIC"> F  </i>
   <v name="POMASS">      1.00000000     16.00000000     14.00100000     12.01100000</v>
   <v name="DARWINR">      0.00000000      0.00000000      0.00000000      0.00000000</v>
   <v name="DARWINV">      1.00000000      1.00000000      1.00000000      1.00000000</v>
   <i type="logical" name="LCORR"> T  </i>
  </separator>
  <i type="logical" name="GGA_COMPAT"> T  </i>
  <i type="logical" name="LBERRY"> F  </i>
  <i type="int" name="ICORELEVEL">     0</i>
  <i type="logical" name="LDAU"> F  </i>
  <i type="int" name="I_CONSTRAINED_M">     0</i>
  <separator name="electronic exchange-correlation" >
   <i type="string" name="GGA">PE</i>
   <i type="int" name="VOSKOWN">     0</i>
   <i type="logical" name="LHFCALC"> F  </i>
   <i type="string" name="PRECFOCK"></i>
   <i type="logical" name="LSYMGRAD"> F  </i>
   <i type="logical" name="LHFONE"> F  </i>
   <i type="logical" name="LRHFCALC"> F  </i>
   <i type="logical" name="LTHOMAS"> F  </i>
   <i type="logical" name="LMODELHF"> F  </i>
   <i name="ENCUT4O">     -1.00000000</i>
   <i type="int" name="EXXOEP">     0</i>
   <i type="int" name="FOURORBIT">     0</i>
   <i name="AEXX">      0.00000000</i>
   <i name="HFALPHA">      0.00000000</i>
   <i name="MCALPHA">      0.00000000</i>
   <i name="ALDAX">      1.00000000</i>
   <i name="AGGAX">      1.00000000</i>
   <i name="ALDAC">      1.00000000</i>
   <i name="AGGAC">      1.00000000</i>
   <i type="int" name="NKREDX">     1</i>
   <i type="int" name="NKREDY">     1</i>
   <i type="int" name="NKREDZ">     1</i>
   <i type="logical" name="SHIFTRED"> F  </i>
   <i type="logical" name="ODDONLY"> F  </i>
   <i type="logical" name="EVENONLY"> F  </i>
   <i type="int" name="LMAXFOCK">     0</i>
   <i type="int" name="NMAXFOCKAE">     0</i>
   <i type="logical" name="LFOCKAEDFT"> F  </i>
   <i name="HFSCREEN">      0.00000000</i>
   <i name="HFSCREENC">      0.00000000</i>
   <i type="int" name="NBANDSGWLOW">     0</i>
  </separator>
  <separator name="vdW DFT" >
   <i type="logical" name="LUSE_VDW"> F  </i>
   <i name="Zab_VDW">     -0.84910000</i>
   <i name="PARAM1">      0.12340000</i>
   <i name="PARAM2">      1.00000000</i>
   <i name="PARAM3">      0.00000000</i>
  </separator>
  <separator name="model GW" >
   <i type="int" name="MODEL_GW">     0</i>
   <i name="MODEL_EPS0">     37.18881360</i>
   <i name="MODEL_ALPHA">      1.00000000</i>
  </separator>
  <separator name="linear response parameters" >
   <i type="logical" name="LEPSILON"> F  </i>
   <i type="logical" name="LRPA"> F  </i>
   <i type="logical" name="LNABLA"> F  </i>
   <i type="logical" name="LVEL"> F  </i>
   <i type="int" name="KINTER">     0</i>
   <i name="CSHIFT">      0.10000000</i>
   <i name="OMEGAMAX">     -1.00000000</i>
   <i name="DEG_THRESHOLD">      0.00200000</i>
   <i name="RTIME">     -0.10000000</i>
   <i name="WPLASMAI">      0.00000000</i>
   <v name="DFIELD">      0.00000000      0.00000000      0.00000000</v>
   <v name="WPLASMA">      0.00000000      0.00000000      0.00000000      0.00000000      0.00000000      0.00000000      0.00000000      0.00000000      0.00000000</v>
  </separator>
  <separator name="orbital magnetization" >
   <i type="logical" name="NUCIND"> F  </i>
   <v name="MAGPOS">      0.00000000      0.00000000      0.00000000</v>
   <i type="logical" name="LNICSALL"> T  </i>
   <i type="logical" name="ORBITALMAG"> F  </i>
   <i type="logical" name="LMAGBLOCH"> F  </i>
   <i type="logical" name="LCHIMAG"> F  </i>
   <i type="logical" name="LGAUGE"> T  </i>
   <i type="int" name="MAGATOM">     0</i>
   <v name="MAGDIPOL">      0.00000000      0.00000000      0.00000000</v>
   <v name="AVECCONST">      0.00000000      0.00000000      0.00000000</v>
  </separator>
  <separator name="response functions" >
   <i type="logical" name="LADDER"> F  </i>
   <i type="logical" name="LRPAFORCE"> F  </i>
   <i type="logical" name="LFXC"> F  </i>
   <i type="logical" name="LHARTREE"> T  </i>
   <i type="int" name="IBSE">     0</i>
   <v type="int" name="KPOINT">    -1     0     0     0</v>
   <i type="logical" name="LTCTE"> F  </i>
   <i type="logical" name="LTETE"> F  </i>
   <i type="logical" name="LTRIPLET"> F  </i>
   <i type="logical" name="LFXCEPS"> F  </i>
   <i type="logical" name="LFXHEG"> F  </i>
   <i type="int" name="NATURALO">     2</i>
   <i type="logical" name="L2ORDER"> F  </i>
   <i type="logical" name="LMP2LT"> F  </i>
   <i type="logical" name="LUSEW"> F  </i>
   <i name="ENCUTGW">     -2.00000000</i>
   <i name="ENCUTGWSOFT">     -2.00000000</i>
   <i name="ENCUTLF">     -1.00000000</i>
   <i type="int" name="LMAXMP2">    -1</i>
   <i name="SCISSOR">      0.00000000</i>
   <i type="int" name="NOMEGA">     0</i>
   <i type="int" name="NOMEGAR">     0</i>
   <i type="int" name="NBANDSGW">    -1</i>
   <i type="int" name="NBANDSO">    -1</i>
   <i type="int" name="NBANDSV">    -1</i>
   <i type="int" name="NELM">   200</i>
   <i type="int" name="NELMHF">     1</i>
   <i type="int" name="DIM">     3</i>
   <i type="int" name="ANTIRES">     0</i>
   <i name="OMEGAMAX">    -30.00000000</i>
   <i name="OMEGAMIN">    -30.00000000</i>
   <i name="OMEGATL">   -200.00000000</i>
   <i type="int" name="OMEGAGRID">   140</i>
   <i name="CSHIFT">     -0.10000000</i>
   <i type="logical" name="SELFENERGY"> F  </i>
   <i type="logical" name="LSPECTRAL"> F  </i>
   <i type="logical" name="LSPECTRALGW"> F  </i>
   <i type="logical" name="LSINGLES"> F  </i>
   <i type="logical" name="LFERMIGW"> F  </i>
   <i type="logical" name="ODDONLYGW"> F  </i>
   <i type="logical" name="EVENONLYGW"> F  </i>
   <i type="int" name="NKREDLFX">     1</i>
   <i type="int" name="NKREDLFY">     1</i>
   <i type="int" name="NKREDLFZ">     1</i>
   <i type="int" name="MAXMEM">  2800</i>
   <i type="int" name="TELESCOPE">     0</i>
   <i type="int" name="TAUPAR">     1</i>
   <i type="int" name="OMEGAPAR">    -1</i>
   <i name="LAMBDA">      1.00000000</i>
  </separator>
  <separator name="External order field" >
   <i name="OFIELD_KAPPA">      0.00000000</i>
   <v name="OFIELD_K">      0.00000000      0.00000000      0.00000000</v>
   <i name="OFIELD_Q6_NEAR">      0.00000000</i>
   <i name="OFIELD_Q6_FAR">      0.00000000</i>
   <i name="OFIELD_A">      0.00000000</i>
  </separator>
  <separator name="solvation model" >
   <i type="logical" name="LSOL"> F  </i>
  </separator>
 </parameters>
 <atominfo>
  <atoms>     132 </atoms>
  <types>       4 </types>
  <array name="atoms" >
   <dimension dim="1">ion</dimension>
   <field type="string">element</field>
   <field type="int">atomtype</field>
   <set>
    <rc><c>H </c><c>   1</c></rc>
    <rc><c>H </c><c>   1</c></rc>
    <rc><c>H </c><c>   1</c></rc>
    <rc><c>H </c><c>   1</c></rc>
    <rc><c>H </c><c>   1</c></rc>
    <rc><c>H </c><c>   1</c></rc>
    <rc><c>H </c><c>   1</c></rc>
    <rc><c>H </c><c>   1</c></rc>
    <rc><c>H </c><c>   1</c></rc>
    <rc><c>H </c><c>   1</c></rc>
    <rc><c>H </c><c>   1</c></rc>
    <rc><c>H </c><c>   1</c></rc>
    <rc><c>H </c><c>   1</c></rc>
    <rc><c>H </c><c>   1</c></rc>
    <rc><c>H </c><c>   1</c></rc>
    <rc><c>H </c><c>   1</c></rc>
    <rc><c>H </c><c>   1</c></rc>
    <rc><c>H </c><c>   1</c></rc>
    <rc><c>H </c><c>   1</c></rc>
    <rc><c>H </c><c>   1</c></rc>
    <rc><c>H </c><c>   1</c></rc>
    <rc><c>H </c><c>   1</c></rc>
    <rc><c>H </c><c>   1</c></rc>
    <rc><c>H </c><c>   1</c></rc>
    <rc><c>H </c><c>   1</c></rc>
    <rc><c>H </c><c>   1</c></rc>
    <rc><c>H </c><c>   1</c></rc>
    <rc><c>H </c><c>   1</c></rc>
    <rc><c>H </c><c>   1</c></rc>
    <rc><c>H </c><c>   1</c></rc>
    <rc><c>H </c><c>   1</c></rc>
    <rc><c>H </c><c>   1</c></rc>
    <rc><c>H </c><c>   1</c></rc>
    <rc><c>H </c><c>   1</c></rc>
    <rc><c>H </c><c>   1</c></rc>
    <rc><c>H </c><c>   1</c></rc>
    <rc><c>H </c><c>   1</c></rc>
    <rc><c>H </c><c>   1</c></rc>
    <rc><c>H </c><c>   1</c></rc>
    <rc><c>H </c><c>   1</c></rc>
    <rc><c>H </c><c>   1</c></rc>
    <rc><c>H </c><c>   1</c></rc>
    <rc><c>H </c><c>   1</c></rc>
    <rc><c>H </c><c>   1</c></rc>
    <rc><c>H </c><c>   1</c></rc>
    <rc><c>H </c><c>   1</c></rc>
    <rc><c>H </c><c>   1</c></rc>
    <rc><c>H </c><c>   1</c></rc>
    <rc><c>O </c><c>   2</c></rc>
    <rc><c>O </c><c>   2</c></rc>
    <rc><c>O </c><c>   2</c></rc>
    <rc><c>O </c><c>   2</c></rc>
    <rc><c>O </c><c>   2</c></rc>
    <rc><c>O </c><c>   2</c></rc>
    <rc><c>O </c><c>   2</c></rc>
    <rc><c>O </c><c>   2</c></rc>
    <rc><c>O </c><c>   2</c></rc>
    <rc><c>O </c><c>   2</c></rc>
    <rc><c>O </c><c>   2</c></rc>
    <rc><c>O </c><c>   2</c></rc>
    <rc><c>N </c><c>   3</c></rc>
    <rc><c>N </c><c>   3</c></rc>
    <rc><c>N </c><c>   3</c></rc>
    <rc><c>N </c><c>   3</c></rc>
    <rc><c>N </c><c>   3</c></rc>
    <rc><c>N </c><c>   3</c></rc>
    <rc><c>N </c><c>   3</c></rc>
    <rc><c>N </c><c>   3</c></rc>
    <rc><c>N </c><c>   3</c></rc>
    <rc><c>N </c><c>   3</c></rc>
    <rc><c>N </c><c>   3</c></rc>
    <rc><c>N </c><c>   3</c></rc>
    <rc><c>C </c><c>   4</c></rc>
    <rc><c>C </c><c>   4</c></rc>
    <rc><c>C </c><c>   4</c></rc>
    <rc><c>C </c><c>   4</c></rc>
    <rc><c>C </c><c>   4</c></rc>
    <rc><c>C </c><c>   4</c></rc>
    <rc><c>C </c><c>   4</c></rc>
    <rc><c>C </c><c>   4</c></rc>
    <rc><c>C </c><c>   4</c></rc>
    <rc><c>C </c><c>   4</c></rc>
    <rc><c>C </c><c>   4</c></rc>
    <rc><c>C </c><c>   4</c></rc>
    <rc><c>C </c><c>   4</c></rc>
    <rc><c>C </c><c>   4</c></rc>
    <rc><c>C </c><c>   4</c></rc>
    <rc><c>C </c><c>   4</c></rc>
    <rc><c>C </c><c>   4</c></rc>
    <rc><c>C </c><c>   4</c></rc>
    <rc><c>C </c><c>   4</c></rc>
    <rc><c>C </c><c>   4</c></rc>
    <rc><c>C </c><c>   4</c></rc>
    <rc><c>C </c><c>   4</c></rc>
    <rc><c>C </c><c>   4</c></rc>
    <rc><c>C </c><c>   4</c></rc>
    <rc><c>C </c><c>   4</c></rc>
    <rc><c>C </c><c>   4</c></rc>
    <rc><c>C </c><c>   4</c></rc>
    <rc><c>C </c><c>   4</c></rc>
    <rc><c>C </c><c>   4</c></rc>
    <rc><c>C </c><c>   4</c></rc>
    <rc><c>C </c><c>   4</c></rc>
    <rc><c>C </c><c>   4</c></rc>
    <rc><c>C </c><c>   4</c></rc>
    <rc><c>C </c><c>   4</c></rc>
    <rc><c>C </c><c>   4</c></rc>
    <rc><c>C </c><c>   4</c></rc>
    <rc><c>C </c><c>   4</c></rc>
    <rc><c>C </c><c>   4</c></rc>
    <rc><c>C </c><c>   4</c></rc>
    <rc><c>C </c><c>   4</c></rc>
    <rc><c>C </c><c>   4</c></rc>
    <rc><c>C </c><c>   4</c></rc>
    <rc><c>C </c><c>   4</c></rc>
    <rc><c>C </c><c>   4</c></rc>
    <rc><c>C </c><c>   4</c></rc>
    <rc><c>C </c><c>   4</c></rc>
    <rc><c>C </c><c>   4</c></rc>
    <rc><c>C </c><c>   4</c></rc>
    <rc><c>C </c><c>   4</c></rc>
    <rc><c>C </c><c>   4</c></rc>
    <rc><c>C </c><c>   4</c></rc>
    <rc><c>C </c><c>   4</c></rc>
    <rc><c>C </c><c>   4</c></rc>
    <rc><c>C </c><c>   4</c></rc>
    <rc><c>C </c><c>   4</c></rc>
    <rc><c>C </c><c>   4</c></rc>
    <rc><c>C </c><c>   4</c></rc>
    <rc><c>C </c><c>   4</c></rc>
    <rc><c>C </c><c>   4</c></rc>
    <rc><c>C </c><c>   4</c></rc>
   </set>
  </array>
  <array name="atomtypes" >
   <dimension dim="1">type</dimension>
   <field type="int">atomspertype</field>
   <field type="string">element</field>
   <field>mass</field>
   <field>valence</field>
   <field type="string">pseudopotential</field>
   <set>
    <rc><c>  48</c><c>H </c><c>      1.00000000</c><c>      1.00000000</c><c>  PAW_PBE H 15Jun2001                   </c></rc>
    <rc><c>  12</c><c>O </c><c>     16.00000000</c><c>      6.00000000</c><c>  PAW_PBE O 08Apr2002                   </c></rc>
    <rc><c>  12</c><c>N </c><c>     14.00100000</c><c>      5.00000000</c><c>  PAW_PBE N 08Apr2002                   </c></rc>
    <rc><c>  60</c><c>C </c><c>     12.01100000</c><c>      4.00000000</c><c>  PAW_PBE C 08Apr2002                   </c></rc>
   </set>
  </array>
 </atominfo>
 <structure name="initialpos" >
  <crystal>
   <varray name="basis" >
    <v>      21.73915125      -0.01347458       0.00000000 </v>
    <v>     -10.87121125      18.82425996       0.00000000 </v>
    <v>       0.00000000       0.00000000      20.00000000 </v>
   </varray>
   <i name="volume">   8181.53899131 </i>
   <varray name="rec_basis" >
    <v>       0.04601643       0.02657498       0.00000000 </v>
    <v>       0.00003294       0.05314196       0.00000000 </v>
    <v>       0.00000000       0.00000000       0.05000000 </v>
   </varray>
  </crystal>
  <varray name="positions" >
   <v>       0.92922657       0.86587494       0.56974934 </v>
   <v>       0.13871817       0.04952326       0.56834375 </v>
   <v>       0.88428352       0.70397214       0.51027141 </v>
   <v>       0.96272821       0.72844241       0.46099524 </v>
   <v>       0.95607587       0.69427072       0.54352896 </v>
   <v>       0.29942045       0.16522420       0.50696808 </v>
   <v>       0.33652199       0.03809243       0.61356898 </v>
   <v>       0.27279565       0.05467586       0.57139672 </v>
   <v>       0.25293772       0.01544632       0.65255520 </v>
   <v>       0.29488971       0.90685440       0.49871464 </v>
   <v>       0.09541190       0.70903639       0.49927294 </v>
   <v>       0.35153987       0.78881694       0.22408166 </v>
   <v>       0.44283383       0.83935720       0.25118036 </v>
   <v>       0.02490927       0.55437030       0.62228586 </v>
   <v>       0.01215895       0.48203828       0.56893420 </v>
   <v>       0.95523111       0.07534838       0.56985778 </v>
   <v>       0.27780480       0.72241793       0.40182472 </v>
   <v>       0.09852686       0.37438461       0.49784028 </v>
   <v>       0.29601808       0.37241040       0.49863565 </v>
   <v>       0.28329643       0.54176687       0.40115619 </v>
   <v>       0.63026613       0.71009300       0.49998417 </v>
   <v>       0.63233271       0.90962834       0.50112385 </v>
   <v>       0.46420605       0.72816962       0.40155238 </v>
   <v>       0.27459987       0.21932692       0.45838308 </v>
   <v>       0.31016543       0.24706506       0.54047080 </v>
   <v>       0.83866897       0.12022969       0.51057595 </v>
   <v>       0.78469354       0.04132607       0.46184268 </v>
   <v>       0.75694161       0.04879696       0.54401547 </v>
   <v>       0.21863806       0.55057028       0.22353178 </v>
   <v>       0.16768323       0.59083077       0.25055216 </v>
   <v>       0.25712427       0.62670060       0.27846529 </v>
   <v>       0.45643004       0.65593477       0.22411930 </v>
   <v>       0.41562285       0.56445015       0.25058610 </v>
   <v>       0.38011765       0.61817869       0.27882057 </v>
   <v>       0.38882270       0.74983695       0.27877897 </v>
   <v>       0.96812515       0.28588658       0.61366503 </v>
   <v>       0.95085878       0.20510672       0.57195165 </v>
   <v>       0.99071098       0.22501249       0.65285272 </v>
   <v>       0.71855449       0.66806288       0.61610556 </v>
   <v>       0.79893901       0.73135754       0.57363907 </v>
   <v>       0.78020048       0.75157533       0.65491357 </v>
   <v>       0.09449406       0.53282173       0.61214382 </v>
   <v>       0.44986723       0.45541032       0.62186889 </v>
   <v>       0.52246095       0.51528825       0.56886031 </v>
   <v>       0.47184421       0.54678689       0.61235643 </v>
   <v>       0.54819786       0.97909783       0.62410254 </v>
   <v>       0.48909383       0.99273747       0.57093251 </v>
   <v>       0.45699036       0.90979188       0.61315497 </v>
   <v>       0.96955602       0.79693711       0.53844664 </v>
   <v>       0.25287453       0.94965465       0.57546867 </v>
   <v>       0.20715626       0.15806398       0.53660289 </v>
   <v>       0.84611618       0.03519731       0.53982755 </v>
   <v>       0.18431759       0.52723664       0.31907814 </v>
   <v>       0.47922305       0.64409713       0.31962310 </v>
   <v>       0.36261560       0.82268818       0.31979182 </v>
   <v>       0.05605905       0.29000856       0.57519659 </v>
   <v>       0.71444527       0.75205905       0.57810093 </v>
   <v>       0.07663737       0.58638703       0.53385342 </v>
   <v>       0.41828322       0.47594794       0.53363670 </v>
   <v>       0.52890084       0.92854021       0.53507778 </v>
   <v>       0.14403045       0.94406513       0.57385971 </v>
   <v>       0.08047025       0.80923998       0.52490382 </v>
   <v>       0.19548156       0.25710848       0.52374525 </v>
   <v>       0.74736409       0.92433829       0.52664375 </v>
   <v>       0.17153584       0.61095430       0.38054262 </v>
   <v>       0.39495119       0.54723287       0.38046223 </v>
   <v>       0.45886000       0.83462063       0.38125324 </v>
   <v>       0.06106806       0.18640869       0.57391228 </v>
   <v>       0.81832584       0.86066049       0.57587483 </v>
   <v>       0.11999919       0.51807019       0.48558302 </v>
   <v>       0.48712837       0.58791419       0.48597718 </v>
   <v>       0.41730070       0.88535912       0.48668455 </v>
   <v>       0.03798170       0.95262944       0.56939487 </v>
   <v>       0.08159831       0.02722275       0.56956138 </v>
   <v>       0.96412693       0.92302528       0.57038256 </v>
   <v>       0.04165795       0.83773632       0.54270358 </v>
   <v>       0.07339510       0.90991659       0.56361260 </v>
   <v>       0.94203906       0.72654502       0.51155788 </v>
   <v>       0.19011892       0.81244584       0.49992290 </v>
   <v>       0.15172018       0.84563475       0.52984948 </v>
   <v>       0.18224323       0.91383867       0.56023944 </v>
   <v>       0.27995879       0.01878986       0.60510706 </v>
   <v>       0.18233479       0.70677770       0.44895939 </v>
   <v>       0.29465357       0.81946314       0.44779775 </v>
   <v>       0.26295196       0.85155119       0.48376769 </v>
   <v>       0.15082367       0.73939415       0.48415363 </v>
   <v>       0.38853528       0.79878581       0.26531098 </v>
   <v>       0.05060659       0.53532374       0.58749292 </v>
   <v>       0.05207585       0.07151827       0.56938257 </v>
   <v>       0.97750958       0.04051786       0.57046932 </v>
   <v>       0.93319798       0.96663350       0.57032262 </v>
   <v>       0.25344326       0.74823472       0.42885572 </v>
   <v>       0.29863252       0.46179250       0.44832483 </v>
   <v>       0.25733000       0.49152531       0.42812628 </v>
   <v>       0.18607680       0.46151627       0.44693594 </v>
   <v>       0.15381361       0.39768092       0.48290902 </v>
   <v>       0.19275687       0.36385431       0.49910589 </v>
   <v>       0.26581378       0.39756033       0.48342011 </v>
   <v>       0.54353862       0.82317231       0.44979906 </v>
   <v>       0.51407560       0.75226321       0.42912988 </v>
   <v>       0.54384034       0.71088652       0.44814771 </v>
   <v>       0.60718482       0.74220297       0.48486655 </v>
   <v>       0.64082137       0.81488786       0.50151276 </v>
   <v>       0.60732327       0.85434632       0.48560866 </v>
   <v>       0.16681331       0.18977933       0.54164429 </v>
   <v>       0.09487850       0.14966818       0.56333440 </v>
   <v>       0.27718761       0.20065251       0.50880971 </v>
   <v>       0.81469524       0.96310292       0.54439292 </v>
   <v>       0.85500307       0.93127061       0.56529549 </v>
   <v>       0.80335971       0.06249921       0.51229381 </v>
   <v>       0.15308814       0.50575774       0.43509298 </v>
   <v>       0.16849122       0.54884288       0.37714467 </v>
   <v>       0.20834359       0.57731970       0.26478945 </v>
   <v>       0.49980045       0.63370249       0.43573063 </v>
   <v>       0.45713431       0.60633592       0.37749708 </v>
   <v>       0.42937685       0.61861758       0.26514082 </v>
   <v>       0.37196346       0.85261882       0.43605338 </v>
   <v>       0.39983935       0.83777044       0.37794514 </v>
   <v>       0.15943001       0.29222836       0.52906660 </v>
   <v>       0.09144743       0.25483612       0.55993144 </v>
   <v>       0.98711494       0.24837878       0.60531275 </v>
   <v>       0.71226905       0.85312969       0.53181712 </v>
   <v>       0.74974351       0.82258885       0.56249622 </v>
   <v>       0.75616311       0.72454739       0.60755328 </v>
   <v>       0.11342600       0.57563441       0.48472113 </v>
   <v>       0.15019916       0.62970653       0.43620574 </v>
   <v>       0.42949656       0.52378700       0.48468103 </v>
   <v>       0.37576078       0.50680061       0.43592349 </v>
   <v>       0.46919277       0.50047010       0.58739018 </v>
   <v>       0.48143401       0.89195380       0.48579498 </v>
   <v>       0.49876455       0.85543765       0.43707973 </v>
   <v>       0.50363601       0.95395102       0.58902432 </v>
  </varray>
 </structure>
 <calculation>
  <scstep>
   <time name="dav">  198.37  200.01</time>
   <time name="total">  198.53  200.18</time>
   <energy>
    <i name="alphaZ">     96.79928670 </i>
    <i name="ewald">  50781.35321104 </i>
    <i name="hartreedc"> -65810.53018787 </i>
    <i name="XCdc">   1544.11003385 </i>
    <i name="pawpsdc">  37370.88021736 </i>
    <i name="pawaedc"> -37454.12185350 </i>
    <i name="eentropy">     -0.00000000 </i>
    <i name="bandstr">  -5209.29038652 </i>
    <i name="atom">  17790.94934312 </i>
    <i name="e_fr_energy">   -889.85033580 </i>
    <i name="e_wo_entrp">   -889.85033580 </i>
    <i name="e_0_energy">   -889.85033580 </i>
   </energy>
  </scstep>
  <scstep>
   <time name="dav">  221.80  223.63</time>
   <time name="total">  221.81  223.65</time>
   <energy>
    <i name="e_fr_energy">   -890.99711010 </i>
    <i name="e_wo_entrp">   -890.99711010 </i>
    <i name="e_0_energy">   -890.99711010 </i>
   </energy>
  </scstep>
  <scstep>
   <time name="dav">  234.86  236.80</time>
   <time name="total">  234.88  236.81</time>
   <energy>
    <i name="e_fr_energy">   -891.02781876 </i>
    <i name="e_wo_entrp">   -891.02781876 </i>
    <i name="e_0_energy">   -891.02781876 </i>
   </energy>
  </scstep>
  <scstep>
   <time name="dav">  218.07  219.89</time>
   <time name="total">  218.08  219.90</time>
   <energy>
    <i name="e_fr_energy">   -891.02860854 </i>
    <i name="e_wo_entrp">   -891.02860854 </i>
    <i name="e_0_energy">   -891.02860854 </i>
   </energy>
  </scstep>
  <scstep>
   <time name="dav">  207.79  209.49</time>
   <time name="total">  207.80  209.50</time>
   <energy>
    <i name="e_fr_energy">   -891.02864594 </i>
    <i name="e_wo_entrp">   -891.02864594 </i>
    <i name="e_0_energy">   -891.02864594 </i>
   </energy>
  </scstep>
  <scstep>
   <time name="dav">  175.79  177.22</time>
   <time name="total">  175.80  177.23</time>
   <energy>
    <i name="alphaZ">     96.79928670 </i>
    <i name="ewald">  50781.35321104 </i>
    <i name="hartreedc"> -65810.53018787 </i>
    <i name="XCdc">   1544.11003385 </i>
    <i name="pawpsdc">  37370.88021736 </i>
    <i name="pawaedc"> -37454.12185350 </i>
    <i name="eentropy">     -0.00000000 </i>
    <i name="bandstr">  -5210.46869809 </i>
    <i name="atom">  17790.94934312 </i>
    <i name="e_fr_energy">   -891.02864738 </i>
    <i name="e_wo_entrp">   -891.02864738 </i>
    <i name="e_0_energy">   -891.02864738 </i>
   </energy>
  </scstep>
  <structure>
   <crystal>
    <varray name="basis" >
     <v>      21.73915125      -0.01347458       0.00000000 </v>
     <v>     -10.87121125      18.82425996       0.00000000 </v>
     <v>       0.00000000       0.00000000      20.00000000 </v>
    </varray>
    <i name="volume">   8181.53899131 </i>
    <varray name="rec_basis" >
     <v>       0.04601643       0.02657498       0.00000000 </v>
     <v>       0.00003294       0.05314196       0.00000000 </v>
     <v>       0.00000000       0.00000000       0.05000000 </v>
    </varray>
   </crystal>
   <varray name="positions" >
    <v>       0.92922657       0.86587494       0.56974934 </v>
    <v>       0.13871817       0.04952326       0.56834375 </v>
    <v>       0.88428352       0.70397214       0.51027141 </v>
    <v>       0.96272821       0.72844241       0.46099524 </v>
    <v>       0.95607587       0.69427072       0.54352896 </v>
    <v>       0.29942045       0.16522420       0.50696808 </v>
    <v>       0.33652199       0.03809243       0.61356898 </v>
    <v>       0.27279565       0.05467586       0.57139672 </v>
    <v>       0.25293772       0.01544632       0.65255520 </v>
    <v>       0.29488971       0.90685440       0.49871464 </v>
    <v>       0.09541190       0.70903639       0.49927294 </v>
    <v>       0.35153987       0.78881694       0.22408166 </v>
    <v>       0.44283383       0.83935720       0.25118036 </v>
    <v>       0.02490927       0.55437030       0.62228586 </v>
    <v>       0.01215895       0.48203828       0.56893420 </v>
    <v>       0.95523111       0.07534838       0.56985778 </v>
    <v>       0.27780480       0.72241793       0.40182472 </v>
    <v>       0.09852686       0.37438461       0.49784028 </v>
    <v>       0.29601808       0.37241040       0.49863565 </v>
    <v>       0.28329643       0.54176687       0.40115619 </v>
    <v>       0.63026613       0.71009300       0.49998417 </v>
    <v>       0.63233271       0.90962834       0.50112385 </v>
    <v>       0.46420605       0.72816962       0.40155238 </v>
    <v>       0.27459987       0.21932692       0.45838308 </v>
    <v>       0.31016543       0.24706506       0.54047080 </v>
    <v>       0.83866897       0.12022969       0.51057595 </v>
    <v>       0.78469354       0.04132607       0.46184268 </v>
    <v>       0.75694161       0.04879696       0.54401547 </v>
    <v>       0.21863806       0.55057028       0.22353178 </v>
    <v>       0.16768323       0.59083077       0.25055216 </v>
    <v>       0.25712427       0.62670060       0.27846529 </v>
    <v>       0.45643004       0.65593477       0.22411930 </v>
    <v>       0.41562285       0.56445015       0.25058610 </v>
    <v>       0.38011765       0.61817869       0.27882057 </v>
    <v>       0.38882270       0.74983695       0.27877897 </v>
    <v>       0.96812515       0.28588658       0.61366503 </v>
    <v>       0.95085878       0.20510672       0.57195165 </v>
    <v>       0.99071098       0.22501249       0.65285272 </v>
    <v>       0.71855449       0.66806288       0.61610556 </v>
    <v>       0.79893901       0.73135754       0.57363907 </v>
    <v>       0.78020048       0.75157533       0.65491357 </v>
    <v>       0.09449406       0.53282173       0.61214382 </v>
    <v>       0.44986723       0.45541032       0.62186889 </v>
    <v>       0.52246095       0.51528825       0.56886031 </v>
    <v>       0.47184421       0.54678689       0.61235643 </v>
    <v>       0.54819786       0.97909783       0.62410254 </v>
    <v>       0.48909383       0.99273747       0.57093251 </v>
    <v>       0.45699036       0.90979188       0.61315497 </v>
    <v>       0.96955602       0.79693711       0.53844664 </v>
    <v>       0.25287453       0.94965465       0.57546867 </v>
    <v>       0.20715626       0.15806398       0.53660289 </v>
    <v>       0.84611618       0.03519731       0.53982755 </v>
    <v>       0.18431759       0.52723664       0.31907814 </v>
    <v>       0.47922305       0.64409713       0.31962310 </v>
    <v>       0.36261560       0.82268818       0.31979182 </v>
    <v>       0.05605905       0.29000856       0.57519659 </v>
    <v>       0.71444527       0.75205905       0.57810093 </v>
    <v>       0.07663737       0.58638703       0.53385342 </v>
    <v>       0.41828322       0.47594794       0.53363670 </v>
    <v>       0.52890084       0.92854021       0.53507778 </v>
    <v>       0.14403045       0.94406513       0.57385971 </v>
    <v>       0.08047025       0.80923998       0.52490382 </v>
    <v>       0.19548156       0.25710848       0.52374525 </v>
    <v>       0.74736409       0.92433829       0.52664375 </v>
    <v>       0.17153584       0.61095430       0.38054262 </v>
    <v>       0.39495119       0.54723287       0.38046223 </v>
    <v>       0.45886000       0.83462063       0.38125324 </v>
    <v>       0.06106806       0.18640869       0.57391228 </v>
    <v>       0.81832584       0.86066049       0.57587483 </v>
    <v>       0.11999919       0.51807019       0.48558302 </v>
    <v>       0.48712837       0.58791419       0.48597718 </v>
    <v>       0.41730070       0.88535912       0.48668455 </v>
    <v>       0.03798170       0.95262944       0.56939487 </v>
    <v>       0.08159831       0.02722275       0.56956138 </v>
    <v>       0.96412693       0.92302528       0.57038256 </v>
    <v>       0.04165795       0.83773632       0.54270358 </v>
    <v>       0.07339510       0.90991659       0.56361260 </v>
    <v>       0.94203906       0.72654502       0.51155788 </v>
    <v>       0.19011892       0.81244584       0.49992290 </v>
    <v>       0.15172018       0.84563475       0.52984948 </v>
    <v>       0.18224323       0.91383867       0.56023944 </v>
    <v>       0.27995879       0.01878986       0.60510706 </v>
    <v>       0.18233479       0.70677770       0.44895939 </v>
    <v>       0.29465357       0.81946314       0.44779775 </v>
    <v>       0.26295196       0.85155119       0.48376769 </v>
    <v>       0.15082367       0.73939415       0.48415363 </v>
    <v>       0.38853528       0.79878581       0.26531098 </v>
    <v>       0.05060659       0.53532374       0.58749292 </v>
    <v>       0.05207585       0.07151827       0.56938257 </v>
    <v>       0.97750958       0.04051786       0.57046932 </v>
    <v>       0.93319798       0.96663350       0.57032262 </v>
    <v>       0.25344326       0.74823472       0.42885572 </v>
    <v>       0.29863252       0.46179250       0.44832483 </v>
    <v>       0.25733000       0.49152531       0.42812628 </v>
    <v>       0.18607680       0.46151627       0.44693594 </v>
    <v>       0.15381361       0.39768092       0.48290902 </v>
    <v>       0.19275687       0.36385431       0.49910589 </v>
    <v>       0.26581378       0.39756033       0.48342011 </v>
    <v>       0.54353862       0.82317231       0.44979906 </v>
    <v>       0.51407560       0.75226321       0.42912988 </v>
    <v>       0.54384034       0.71088652       0.44814771 </v>
    <v>       0.60718482       0.74220297       0.48486655 </v>
    <v>       0.64082137       0.81488786       0.50151276 </v>
    <v>       0.60732327       0.85434632       0.48560866 </v>
    <v>       0.16681331       0.18977933       0.54164429 </v>
    <v>       0.09487850       0.14966818       0.56333440 </v>
    <v>       0.27718761       0.20065251       0.50880971 </v>
    <v>       0.81469524       0.96310292       0.54439292 </v>
    <v>       0.85500307       0.93127061       0.56529549 </v>
    <v>       0.80335971       0.06249921       0.51229381 </v>
    <v>       0.15308814       0.50575774       0.43509298 </v>
    <v>       0.16849122       0.54884288       0.37714467 </v>
    <v>       0.20834359       0.57731970       0.26478945 </v>
    <v>       0.49980045       0.63370249       0.43573063 </v>
    <v>       0.45713431       0.60633592       0.37749708 </v>
    <v>       0.42937685       0.61861758       0.26514082 </v>
    <v>       0.37196346       0.85261882       0.43605338 </v>
    <v>       0.39983935       0.83777044       0.37794514 </v>
    <v>       0.15943001       0.29222836       0.52906660 </v>
    <v>       0.09144743       0.25483612       0.55993144 </v>
    <v>       0.98711494       0.24837878       0.60531275 </v>
    <v>       0.71226905       0.85312969       0.53181712 </v>
    <v>       0.74974351       0.82258885       0.56249622 </v>
    <v>       0.75616311       0.72454739       0.60755328 </v>
    <v>       0.11342600       0.57563441       0.48472113 </v>
    <v>       0.15019916       0.62970653       0.43620574 </v>
    <v>       0.42949656       0.52378700       0.48468103 </v>
    <v>       0.37576078       0.50680061       0.43592349 </v>
    <v>       0.46919277       0.50047010       0.58739018 </v>
    <v>       0.48143401       0.89195380       0.48579498 </v>
    <v>       0.49876455       0.85543765       0.43707973 </v>
    <v>       0.50363601       0.95395102       0.58902432 </v>
   </varray>
  </structure>
  <varray name="forces" >
   <v>       0.00063057      -0.00089539      -0.00044643 </v>
   <v>       0.00464677      -0.00138610       0.00012587 </v>
   <v>       0.00168163       0.00178053       0.00211121 </v>
   <v>      -0.00205167       0.00155606       0.00488496 </v>
   <v>       0.00022221       0.00072897       0.00124152 </v>
   <v>       0.00116144      -0.00061659      -0.00033599 </v>
   <v>      -0.00023830       0.00133966      -0.00110948 </v>
   <v>       0.00055952      -0.00112635      -0.00038701 </v>
   <v>       0.00081873      -0.00209569      -0.00039528 </v>
   <v>       0.00103738      -0.00197223      -0.00073223 </v>
   <v>      -0.00174638       0.00191805       0.00190136 </v>
   <v>       0.00014375      -0.00055290      -0.00428737 </v>
   <v>      -0.00201016       0.00203559       0.00007705 </v>
   <v>      -0.00356641       0.00153576       0.00048455 </v>
   <v>      -0.00023907      -0.00117017      -0.00195313 </v>
   <v>       0.00200125       0.00123701       0.00260628 </v>
   <v>       0.00191892      -0.00008412      -0.00107196 </v>
   <v>      -0.00145362       0.00228880      -0.00218845 </v>
   <v>      -0.00048092       0.00140289       0.00039670 </v>
   <v>      -0.00068567       0.00214763      -0.00284915 </v>
   <v>      -0.00073945       0.00041201      -0.00125480 </v>
   <v>      -0.00162993       0.00275626       0.00234938 </v>
   <v>      -0.00001185      -0.00096463       0.00182105 </v>
   <v>       0.00140284      -0.00027652       0.00193181 </v>
   <v>      -0.00448045      -0.00254338       0.00319232 </v>
   <v>      -0.00289626       0.00105814       0.00190832 </v>
   <v>      -0.00442154       0.00280789      -0.00201039 </v>
   <v>       0.00213512      -0.00248226       0.00387073 </v>
   <v>       0.00008817       0.00166426      -0.00147729 </v>
   <v>       0.00181306      -0.00109114       0.00000820 </v>
   <v>      -0.00159343      -0.00502516       0.00150392 </v>
   <v>      -0.00077668       0.00150605      -0.00264875 </v>
   <v>       0.00005456      -0.00472877      -0.00423975 </v>
   <v>      -0.00275751       0.00106528      -0.00195309 </v>
   <v>       0.00121954      -0.00247333      -0.00269525 </v>
   <v>      -0.00119655      -0.00040219       0.00007197 </v>
   <v>      -0.00079837      -0.00216266      -0.00021620 </v>
   <v>      -0.00342925      -0.00136443       0.00164544 </v>
   <v>       0.00083965       0.00012829       0.00193026 </v>
   <v>       0.00307130      -0.00206029       0.00054106 </v>
   <v>      -0.00085808      -0.00235866       0.00036441 </v>
   <v>       0.00031703      -0.00041388      -0.00261472 </v>
   <v>       0.00078147       0.00012490       0.00374005 </v>
   <v>       0.00173931       0.00079695      -0.00109454 </v>
   <v>      -0.00078399       0.00151526      -0.00004540 </v>
   <v>       0.00236659       0.00458095       0.00170447 </v>
   <v>      -0.00126742       0.00074249      -0.00399619 </v>
   <v>      -0.00341517      -0.00174682      -0.00065231 </v>
   <v>      -0.00227289      -0.00234674       0.00217248 </v>
   <v>       0.00353308       0.00108192      -0.00038652 </v>
   <v>       0.00225719       0.00144211      -0.00168266 </v>
   <v>       0.00442577       0.00072186       0.00236485 </v>
   <v>      -0.00066908      -0.00224243      -0.00375353 </v>
   <v>      -0.00102957       0.00117006      -0.00602960 </v>
   <v>       0.00056008      -0.00422906      -0.00307102 </v>
   <v>      -0.00411214       0.00310336       0.00448168 </v>
   <v>       0.00300952      -0.00069762       0.00362825 </v>
   <v>       0.00223324      -0.00030945      -0.00456926 </v>
   <v>       0.00161926      -0.00320918       0.00376870 </v>
   <v>      -0.00052884       0.00021842      -0.00176769 </v>
   <v>       0.00393678       0.00226616      -0.00077901 </v>
   <v>      -0.00870154       0.00136423      -0.00430035 </v>
   <v>       0.00459983      -0.00238974      -0.00410369 </v>
   <v>      -0.00423063       0.00296457      -0.00040127 </v>
   <v>       0.00607092      -0.00282579       0.00405942 </v>
   <v>      -0.00069691      -0.00133764       0.00702337 </v>
   <v>      -0.00292739      -0.00402817       0.00061868 </v>
   <v>      -0.00277250       0.00362602      -0.00150718 </v>
   <v>       0.00523350       0.00248152       0.00480797 </v>
   <v>      -0.00173610       0.00154402       0.00188627 </v>
   <v>      -0.00542983      -0.00538412       0.00106816 </v>
   <v>       0.00466313       0.00409382      -0.00493112 </v>
   <v>      -0.00128992       0.00153677       0.00431653 </v>
   <v>      -0.00182257      -0.00283885       0.00249089 </v>
   <v>      -0.00062569      -0.00185218       0.00201177 </v>
   <v>       0.00719186      -0.00127972       0.00318821 </v>
   <v>       0.00039043      -0.00596294       0.00578791 </v>
   <v>       0.00105305      -0.00199256       0.00008864 </v>
   <v>       0.00480291       0.00290753       0.00118736 </v>
   <v>       0.00470038      -0.00203722       0.00139598 </v>
   <v>      -0.00043620       0.00335175       0.00339565 </v>
   <v>       0.00241607       0.00027168      -0.00029500 </v>
   <v>      -0.00327975      -0.00106396      -0.00000640 </v>
   <v>      -0.00240167      -0.00029685       0.00046299 </v>
   <v>      -0.00568460       0.00226811       0.00462985 </v>
   <v>       0.00360688      -0.00342532      -0.00528577 </v>
   <v>      -0.00340165       0.00073257       0.00540047 </v>
   <v>      -0.00046945      -0.00120325      -0.00273001 </v>
   <v>      -0.00253594      -0.00105160       0.00079226 </v>
   <v>       0.00375527       0.00188634      -0.00021853 </v>
   <v>       0.00412062       0.00192830       0.00280424 </v>
   <v>       0.00164822      -0.00037600       0.00011863 </v>
   <v>      -0.00062959      -0.00213052      -0.00036104 </v>
   <v>      -0.00134243      -0.00136162       0.00199637 </v>
   <v>      -0.00148743      -0.00272340      -0.00253245 </v>
   <v>       0.00055583      -0.00097690       0.00060298 </v>
   <v>      -0.00369862       0.00284533       0.00166774 </v>
   <v>       0.00345013       0.00106832       0.00078936 </v>
   <v>       0.00433856      -0.00314235      -0.00184036 </v>
   <v>      -0.00474212       0.00574679      -0.00396761 </v>
   <v>       0.00076243      -0.00107246      -0.00168614 </v>
   <v>       0.00069702       0.00409051       0.00277621 </v>
   <v>       0.00041005      -0.00227418      -0.00072402 </v>
   <v>      -0.00351582      -0.00340172      -0.00372841 </v>
   <v>      -0.00193432      -0.00007101       0.00338123 </v>
   <v>       0.00531063      -0.00090820       0.00034930 </v>
   <v>       0.00327032      -0.00107295      -0.00011463 </v>
   <v>       0.00331902      -0.00111957      -0.00024052 </v>
   <v>      -0.00334280       0.00155294      -0.00513841 </v>
   <v>      -0.00191922       0.00447680      -0.00414860 </v>
   <v>       0.00285779       0.00025150      -0.00146056 </v>
   <v>      -0.00100558      -0.00204133      -0.00120711 </v>
   <v>      -0.00114065      -0.00006854       0.00122553 </v>
   <v>      -0.00453886      -0.00382355       0.00049259 </v>
   <v>      -0.00116111      -0.00186579      -0.00276257 </v>
   <v>       0.00206978      -0.00016129       0.00486949 </v>
   <v>      -0.00003546       0.00290935      -0.00097384 </v>
   <v>      -0.00172483       0.00088080      -0.00432174 </v>
   <v>      -0.00221184       0.00274312       0.00756633 </v>
   <v>       0.00790257      -0.00241496      -0.00203372 </v>
   <v>      -0.00233797       0.00145352      -0.00037171 </v>
   <v>      -0.00182308       0.00504731       0.00045980 </v>
   <v>      -0.00042246      -0.00186446       0.00055528 </v>
   <v>      -0.00161224       0.00027528      -0.00227766 </v>
   <v>       0.00370969       0.00271110      -0.00505943 </v>
   <v>      -0.00223256       0.00081802       0.00403287 </v>
   <v>       0.00227960       0.00468764       0.00028497 </v>
   <v>      -0.00398906      -0.00456155      -0.00617986 </v>
   <v>      -0.00173966      -0.00029343      -0.00453718 </v>
   <v>      -0.00256949       0.00635715       0.00490381 </v>
   <v>       0.00187667       0.00368653      -0.00318219 </v>
   <v>       0.00245134       0.00003104      -0.00499449 </v>
  </varray>
  <varray name="stress" >
   <v>      -0.01208585       0.00313368       0.01286630 </v>
   <v>       0.00313367      -0.02288110       0.00906610 </v>
   <v>       0.01286630       0.00906610      -0.32917359 </v>
  </varray>
  <energy>
   <i name="e_fr_energy">   -894.10517634 </i>
   <i name="e_wo_entrp">   -894.10517634 </i>
   <i name="e_0_energy">     -0.00000000 </i>
  </energy>
  <time name="totalsc"> 1409.09 1420.99</time>
  <eigenvalues>
   <array>
    <dimension dim="1">band</dimension>
    <dimension dim="2">kpoint</dimension>
    <dimension dim="3">spin</dimension>
    <field>eigene</field>
    <field>occ</field>
    <set>
     <set comment="spin 1">
      <set comment="kpoint 1">
       <r>  -26.3128    1.0000 </r>
       <r>  -26.3100    1.0000 </r>
       <r>  -26.3092    1.0000 </r>
       <r>  -26.2981    1.0000 </r>
       <r>  -26.2963    1.0000 </r>
       <r>  -26.2949    1.0000 </r>
       <r>  -26.1991    1.0000 </r>
       <r>  -26.1962    1.0000 </r>
       <r>  -26.1954    1.0000 </r>
       <r>  -26.1858    1.0000 </r>
       <r>  -26.1845    1.0000 </r>
       <r>  -26.1831    1.0000 </r>
       <r>  -23.5248    1.0000 </r>
       <r>  -23.5145    1.0000 </r>
       <r>  -23.5135    1.0000 </r>
       <r>  -23.4557    1.0000 </r>
       <r>  -23.4500    1.0000 </r>
       <r>  -23.4480    1.0000 </r>
       <r>  -21.8550    1.0000 </r>
       <r>  -21.8541    1.0000 </r>
       <r>  -21.8284    1.0000 </r>
       <r>  -21.7795    1.0000 </r>
       <r>  -21.7558    1.0000 </r>
       <r>  -21.7550    1.0000 </r>
       <r>  -20.5962    1.0000 </r>
       <r>  -20.5792    1.0000 </r>
       <r>  -20.5784    1.0000 </r>
       <r>  -20.4669    1.0000 </r>
       <r>  -19.2138    1.0000 </r>
       <r>  -19.2050    1.0000 </r>
       <r>  -19.2037    1.0000 </r>
       <r>  -18.8801    1.0000 </r>
       <r>  -18.8610    1.0000 </r>
       <r>  -18.8603    1.0000 </r>
       <r>  -18.3709    1.0000 </r>
       <r>  -18.3705    1.0000 </r>
       <r>  -17.8443    1.0000 </r>
       <r>  -17.8318    1.0000 </r>
       <r>  -17.8311    1.0000 </r>
       <r>  -17.4342    1.0000 </r>
       <r>  -17.3949    1.0000 </r>
       <r>  -17.3938    1.0000 </r>
       <r>  -17.3497    1.0000 </r>
       <r>  -17.3126    1.0000 </r>
       <r>  -17.3112    1.0000 </r>
       <r>  -17.2481    1.0000 </r>
       <r>  -17.2213    1.0000 </r>
       <r>  -17.2199    1.0000 </r>
       <r>  -16.2498    1.0000 </r>
       <r>  -16.2489    1.0000 </r>
       <r>  -16.2476    1.0000 </r>
       <r>  -16.1710    1.0000 </r>
       <r>  -16.1352    1.0000 </r>
       <r>  -16.1346    1.0000 </r>
       <r>  -15.8955    1.0000 </r>
       <r>  -15.7564    1.0000 </r>
       <r>  -15.7559    1.0000 </r>
       <r>  -15.6582    1.0000 </r>
       <r>  -15.6563    1.0000 </r>
       <r>  -15.6329    1.0000 </r>
       <r>  -14.5770    1.0000 </r>
       <r>  -14.4883    1.0000 </r>
       <r>  -14.4869    1.0000 </r>
       <r>  -14.4183    1.0000 </r>
       <r>  -14.4049    1.0000 </r>
       <r>  -14.4046    1.0000 </r>
       <r>  -14.0364    1.0000 </r>
       <r>  -14.0351    1.0000 </r>
       <r>  -13.8968    1.0000 </r>
       <r>  -13.8758    1.0000 </r>
       <r>  -13.6973    1.0000 </r>
       <r>  -13.6966    1.0000 </r>
       <r>  -13.5807    1.0000 </r>
       <r>  -13.5790    1.0000 </r>
       <r>  -12.8241    1.0000 </r>
       <r>  -12.7989    1.0000 </r>
       <r>  -12.7977    1.0000 </r>
       <r>  -12.7830    1.0000 </r>
       <r>  -12.6206    1.0000 </r>
       <r>  -12.6197    1.0000 </r>
       <r>  -12.6185    1.0000 </r>
       <r>  -12.5864    1.0000 </r>
       <r>  -12.5195    1.0000 </r>
       <r>  -12.5193    1.0000 </r>
       <r>  -12.0884    1.0000 </r>
       <r>  -12.0805    1.0000 </r>
       <r>  -12.0799    1.0000 </r>
       <r>  -12.0389    1.0000 </r>
       <r>  -12.0382    1.0000 </r>
       <r>  -11.9782    1.0000 </r>
       <r>  -11.8794    1.0000 </r>
       <r>  -11.8791    1.0000 </r>
       <r>  -11.5828    1.0000 </r>
       <r>  -11.5142    1.0000 </r>
       <r>  -11.5127    1.0000 </r>
       <r>  -11.3449    1.0000 </r>
       <r>  -11.0201    1.0000 </r>
       <r>  -11.0200    1.0000 </r>
       <r>  -11.0108    1.0000 </r>
       <r>  -10.9473    1.0000 </r>
       <r>  -10.9317    1.0000 </r>
       <r>  -10.9303    1.0000 </r>
       <r>  -10.8219    1.0000 </r>
       <r>  -10.7718    1.0000 </r>
       <r>  -10.7712    1.0000 </r>
       <r>  -10.7693    1.0000 </r>
       <r>  -10.5922    1.0000 </r>
       <r>  -10.5912    1.0000 </r>
       <r>  -10.5893    1.0000 </r>
       <r>  -10.5739    1.0000 </r>
       <r>  -10.5646    1.0000 </r>
       <r>  -10.5638    1.0000 </r>
       <r>  -10.1983    1.0000 </r>
       <r>  -10.1980    1.0000 </r>
       <r>  -10.1517    1.0000 </r>
       <r>  -10.0281    1.0000 </r>
       <r>  -10.0272    1.0000 </r>
       <r>  -10.0234    1.0000 </r>
       <r>   -9.9709    1.0000 </r>
       <r>   -9.8973    1.0000 </r>
       <r>   -9.8962    1.0000 </r>
       <r>   -9.7327    1.0000 </r>
       <r>   -9.7309    1.0000 </r>
       <r>   -9.7294    1.0000 </r>
       <r>   -9.7172    1.0000 </r>
       <r>   -9.7161    1.0000 </r>
       <r>   -9.6905    1.0000 </r>
       <r>   -9.6608    1.0000 </r>
       <r>   -9.6206    1.0000 </r>
       <r>   -9.6161    1.0000 </r>
       <r>   -9.6146    1.0000 </r>
       <r>   -9.5876    1.0000 </r>
       <r>   -9.5874    1.0000 </r>
       <r>   -9.5451    1.0000 </r>
       <r>   -9.5153    1.0000 </r>
       <r>   -9.5142    1.0000 </r>
       <r>   -9.3770    1.0000 </r>
       <r>   -9.3730    1.0000 </r>
       <r>   -9.2786    1.0000 </r>
       <r>   -9.1640    1.0000 </r>
       <r>   -9.0861    1.0000 </r>
       <r>   -9.0845    1.0000 </r>
       <r>   -8.6898    1.0000 </r>
       <r>   -8.6027    1.0000 </r>
       <r>   -8.6010    1.0000 </r>
       <r>   -8.2563    1.0000 </r>
       <r>   -8.1613    1.0000 </r>
       <r>   -8.1585    1.0000 </r>
       <r>   -8.0235    1.0000 </r>
       <r>   -8.0228    1.0000 </r>
       <r>   -7.9994    1.0000 </r>
       <r>   -7.9617    1.0000 </r>
       <r>   -7.9605    1.0000 </r>
       <r>   -7.9588    1.0000 </r>
       <r>   -7.9289    1.0000 </r>
       <r>   -7.9246    1.0000 </r>
       <r>   -7.9240    1.0000 </r>
       <r>   -7.8102    1.0000 </r>
       <r>   -7.8022    1.0000 </r>
       <r>   -7.8018    1.0000 </r>
       <r>   -7.6506    1.0000 </r>
       <r>   -7.6493    1.0000 </r>
       <r>   -7.6116    1.0000 </r>
       <r>   -7.5538    1.0000 </r>
       <r>   -7.5258    1.0000 </r>
       <r>   -7.5238    1.0000 </r>
       <r>   -7.4830    1.0000 </r>
       <r>   -7.4803    1.0000 </r>
       <r>   -7.4090    1.0000 </r>
       <r>   -7.2947    1.0000 </r>
       <r>   -7.2743    1.0000 </r>
       <r>   -7.2709    1.0000 </r>
       <r>   -7.1940    1.0000 </r>
       <r>   -7.0755    1.0000 </r>
       <r>   -7.0695    1.0000 </r>
       <r>   -7.0353    1.0000 </r>
       <r>   -6.9005    1.0000 </r>
       <r>   -6.8971    1.0000 </r>
       <r>   -6.7411    1.0000 </r>
       <r>   -6.7396    1.0000 </r>
       <r>   -6.6288    1.0000 </r>
       <r>   -6.5879    1.0000 </r>
       <r>   -6.5877    1.0000 </r>
       <r>   -6.5552    1.0000 </r>
       <r>   -6.2561    1.0000 </r>
       <r>   -6.2550    1.0000 </r>
       <r>   -6.2466    1.0000 </r>
       <r>   -6.0715    1.0000 </r>
       <r>   -6.0554    1.0000 </r>
       <r>   -6.0525    1.0000 </r>
       <r>   -5.6251    1.0000 </r>
       <r>   -5.6244    1.0000 </r>
       <r>   -5.5946    1.0000 </r>
       <r>   -5.5257    1.0000 </r>
       <r>   -5.5246    1.0000 </r>
       <r>   -5.5177    1.0000 </r>
       <r>   -5.4863    1.0000 </r>
       <r>   -5.4854    1.0000 </r>
       <r>   -5.4455    1.0000 </r>
       <r>   -5.3293    1.0000 </r>
       <r>   -5.3287    1.0000 </r>
       <r>   -5.3180    1.0000 </r>
       <r>   -5.2258    1.0000 </r>
       <r>   -5.2250    1.0000 </r>
       <r>   -4.3262    1.0000 </r>
       <r>   -4.3093    1.0000 </r>
       <r>   -4.3083    1.0000 </r>
       <r>   -4.1471    1.0000 </r>
       <r>   -4.0596    1.0000 </r>
       <r>   -4.0579    1.0000 </r>
       <r>   -1.8919    0.0000 </r>
       <r>   -1.8902    0.0000 </r>
       <r>   -1.7522    0.0000 </r>
       <r>   -1.7019    0.0000 </r>
       <r>   -1.6989    0.0000 </r>
       <r>   -1.4706    0.0000 </r>
       <r>   -0.5547    0.0000 </r>
       <r>   -0.5404    0.0000 </r>
       <r>   -0.5394    0.0000 </r>
       <r>   -0.4645    0.0000 </r>
       <r>   -0.4312    0.0000 </r>
       <r>   -0.4298    0.0000 </r>
       <r>   -0.2070    0.0000 </r>
       <r>   -0.2033    0.0000 </r>
       <r>   -0.1366    0.0000 </r>
       <r>   -0.0561    0.0000 </r>
       <r>    0.1241    0.0000 </r>
       <r>    0.1666    0.0000 </r>
       <r>    0.1681    0.0000 </r>
       <r>    0.3304    0.0000 </r>
       <r>    0.3310    0.0000 </r>
       <r>    0.4325    0.0000 </r>
       <r>    0.4760    0.0000 </r>
       <r>    0.4790    0.0000 </r>
       <r>    0.5551    0.0000 </r>
       <r>    0.6027    0.0000 </r>
       <r>    0.6557    0.0000 </r>
       <r>    0.7447    0.0000 </r>
       <r>    0.7451    0.0000 </r>
       <r>    0.8081    0.0000 </r>
       <r>    0.8570    0.0000 </r>
       <r>    0.8605    0.0000 </r>
       <r>    0.8621    0.0000 </r>
       <r>    0.9583    0.0000 </r>
       <r>    1.0105    0.0000 </r>
       <r>    1.0118    0.0000 </r>
       <r>    1.0621    0.0000 </r>
       <r>    1.0642    0.0000 </r>
       <r>    1.1065    0.0000 </r>
       <r>    1.1081    0.0000 </r>
       <r>    1.1348    0.0000 </r>
       <r>    1.1835    0.0000 </r>
       <r>    1.1846    0.0000 </r>
       <r>    1.2797    0.0000 </r>
       <r>    1.2807    0.0000 </r>
       <r>    1.2954    0.0000 </r>
       <r>    1.3596    0.0000 </r>
       <r>    1.3902    0.0000 </r>
       <r>    1.4165    0.0000 </r>
       <r>    1.4189    0.0000 </r>
[...]
       <r>   -19.6811     0.0000    56.0000 </r>
       <r>   -19.5764     0.0000    56.0000 </r>
       <r>   -19.4718     0.0000    56.0000 </r>
       <r>   -19.3671     0.0000    56.0000 </r>
       <r>   -19.2624     0.0000    56.0000 </r>
       <r>   -19.1578    47.7496    60.9975 </r>
       <r>   -19.0531    13.0649    63.0341 </r>
       <r>   -18.9485     3.9709    63.6156 </r>
       <r>   -18.8438    22.7646    66.1159 </r>
       <r>   -18.7391     3.6210    66.6457 </r>
       <r>   -18.6345    11.4655    68.0000 </r>
       <r>   -18.5298     0.0000    68.0000 </r>
       <r>   -18.4251     0.0000    68.0000 </r>
       <r>   -18.3205    38.2185    72.0000 </r>
       <r>   -18.2158     0.0000    72.0000 </r>
       <r>   -18.1112     0.0000    72.0000 </r>
       <r>   -18.0065    12.4795    73.3061 </r>
       <r>   -17.9018     2.9296    73.7400 </r>
       <r>   -17.7972    22.3328    76.1707 </r>
       <r>   -17.6925     2.6857    76.5478 </r>
       <r>   -17.5879     3.5366    77.0035 </r>
       <r>   -17.4832     7.5975    78.2618 </r>
       <r>   -17.3785    47.2571    83.9460 </r>
       <r>   -17.2739    63.7234    90.6694 </r>
       <r>   -17.1692    39.8062    95.9995 </r>
       <r>   -17.0646     0.0000    96.0000 </r>
       <r>   -16.9599     0.0000    96.0000 </r>
       <r>   -16.8552     0.0000    96.0000 </r>
       <r>   -16.7506     0.0000    96.0000 </r>
       <r>   -16.6459     0.0000    96.0000 </r>
       <r>   -16.5412     0.0000    96.0000 </r>
       <r>   -16.4366     0.0000    96.0000 </r>
       <r>   -16.3319     0.0000    96.0000 </r>
       <r>   -16.2273    50.6816   101.3044 </r>
       <r>   -16.1226    56.8171   107.9466 </r>
       <r>   -16.0179     0.0000   108.0000 </r>
       <r>   -15.9133     0.0098   108.0010 </r>
       <r>   -15.8086    16.2303   109.9987 </r>
       <r>   -15.7040    42.2062   114.4174 </r>
       <r>   -15.5993    43.0903   119.9432 </r>
       <r>   -15.4946     0.0000   120.0000 </r>
       <r>   -15.3900     0.0000   120.0000 </r>
       <r>   -15.2853     0.0000   120.0000 </r>
       <r>   -15.1806     0.0000   120.0000 </r>
       <r>   -15.0760     0.0000   120.0000 </r>
       <r>   -14.9713     0.0000   120.0000 </r>
       <r>   -14.8667     0.0000   120.0000 </r>
       <r>   -14.7620     0.0000   120.0000 </r>
       <r>   -14.6573     0.0000   120.0000 </r>
       <r>   -14.5527    19.1091   122.0000 </r>
       <r>   -14.4480    35.5837   125.9909 </r>
       <r>   -14.3434    42.9955   132.0000 </r>
       <r>   -14.2387     0.0000   132.0000 </r>
       <r>   -14.1340     0.0000   132.0000 </r>
       <r>   -14.0294    16.3898   133.7154 </r>
       <r>   -13.9247    10.6963   136.0528 </r>
       <r>   -13.8200    30.5938   140.3353 </r>
       <r>   -13.7154     9.8086   141.5932 </r>
       <r>   -13.6107     8.9517   144.0036 </r>
       <r>   -13.5061    34.0778   148.0000 </r>
       <r>   -13.4014     0.0000   148.0000 </r>
       <r>   -13.2967     0.0000   148.0000 </r>
       <r>   -13.1921     0.0000   148.0000 </r>
       <r>   -13.0874     0.0000   148.0000 </r>
       <r>   -12.9828     0.0000   148.0000 </r>
       <r>   -12.8781    12.6435   149.3233 </r>
       <r>   -12.7734    38.0345   153.5807 </r>
       <r>   -12.6688     0.0000   156.0000 </r>
       <r>   -12.5641    75.1899   163.8695 </r>
       <r>   -12.4595    38.2183   168.0000 </r>
       <r>   -12.3548     0.0000   168.0000 </r>
       <r>   -12.2501     0.0000   168.0000 </r>
       <r>   -12.1455     0.0000   168.0000 </r>
       <r>   -12.0408    62.3252   174.5230 </r>
       <r>   -11.9361    35.0848   180.0054 </r>
       <r>   -11.8315    28.3264   183.9980 </r>
       <r>   -11.7268     0.0000   184.0000 </r>
       <r>   -11.6222     1.4209   184.1487 </r>
       <r>   -11.5175    33.8841   188.7464 </r>
       <r>   -11.4128     0.0000   190.0000 </r>
       <r>   -11.3082    19.1047   191.9995 </r>
       <r>   -11.2035     0.0000   192.0000 </r>
       <r>   -11.0989     0.0000   192.0000 </r>
       <r>   -10.9942    48.5037   197.0765 </r>
       <r>   -10.8895    57.3273   204.0000 </r>
       <r>   -10.7849    22.0573   206.3085 </r>
       <r>   -10.6802    14.9687   212.0000 </r>
       <r>   -10.5755    64.3920   218.7394 </r>
       <r>   -10.4709     0.0000   224.0000 </r>
       <r>   -10.3662     0.0000   224.0000 </r>
       <r>   -10.2616     0.0000   224.0000 </r>
       <r>   -10.1569    50.8587   229.3229 </r>
       <r>   -10.0522    10.6271   231.1123 </r>
       <r>    -9.9476    39.8012   237.9991 </r>
       <r>    -9.8429    27.9174   240.9219 </r>
       <r>    -9.7383    36.8956   245.5282 </r>
       <r>    -9.6336    74.6149   257.1427 </r>
       <r>    -9.5289    69.9852   268.0581 </r>
       <r>    -9.4243     8.9165   272.0000 </r>
       <r>    -9.3196    38.2193   276.0001 </r>
       <r>    -9.2149    19.1085   278.0000 </r>
       <r>    -9.1103    19.1150   280.0006 </r>
       <r>    -9.0056    27.3879   284.0000 </r>
       <r>    -8.9010     0.0000   284.0000 </r>
       <r>    -8.7963     0.0000   284.0000 </r>
       <r>    -8.6916    17.8446   285.8676 </r>
       <r>    -8.5870    21.4263   288.2425 </r>
       <r>    -8.4823     5.4228   289.0676 </r>
       <r>    -8.3777     3.9366   290.0787 </r>
       <r>    -8.2730     9.2511   291.6016 </r>
       <r>    -8.1683     0.8203   292.0859 </r>
       <r>    -8.0637    28.8802   297.5560 </r>
       <r>    -7.9590    56.2059   304.8159 </r>
       <r>    -7.8544    57.3282   314.0001 </r>
       <r>    -7.7497    55.7360   319.8335 </r>
       <r>    -7.6450    20.1617   322.1102 </r>
       <r>    -7.5404    49.9784   327.9975 </r>
       <r>    -7.4357    60.5115   336.0000 </r>
       <r>    -7.3310    25.0292   338.6196 </r>
       <r>    -7.2264    42.3588   344.0000 </r>
       <r>    -7.1217    30.6467   347.2075 </r>
       <r>    -7.0171    43.9456   351.9994 </r>
       <r>    -6.9124     0.4645   352.0486 </r>
       <r>    -6.8077    13.3347   355.6623 </r>
       <r>    -6.7031    38.2185   360.0000 </r>
       <r>    -6.5984    21.7365   362.2750 </r>
       <r>    -6.4938    19.1092   368.0000 </r>
       <r>    -6.3891     0.0000   368.0000 </r>
       <r>    -6.2844     0.0009   368.0001 </r>
       <r>    -6.1798    57.3269   374.0000 </r>
       <r>    -6.0751     6.8870   374.7208 </r>
       <r>    -5.9704     0.0000   380.0000 </r>
       <r>    -5.8658     0.0000   380.0000 </r>
       <r>    -5.7611     0.0000   380.0000 </r>
       <r>    -5.6565     0.0001   380.0000 </r>
       <r>    -5.5518    57.3315   386.0004 </r>
       <r>    -5.4471    97.0700   396.1599 </r>
       <r>    -5.3425    26.3163   399.7210 </r>
       <r>    -5.2378    19.5751   404.1154 </r>
       <r>    -5.1332     0.0000   408.0000 </r>
       <r>    -5.0285     0.0000   408.0000 </r>
       <r>    -4.9238     0.0000   408.0000 </r>
       <r>    -4.8192     0.0000   408.0000 </r>
       <r>    -4.7145     0.0000   408.0000 </r>
       <r>    -4.6098     0.0000   408.0000 </r>
       <r>    -4.5052     0.0000   408.0000 </r>
       <r>    -4.4005     9.6859   409.0137 </r>
       <r>    -4.2959    25.3576   412.0873 </r>
       <r>    -4.1912     6.0690   413.0019 </r>
       <r>    -4.0865    32.9873   417.2192 </r>
       <r>    -3.9819    21.9735   420.0000 </r>
       <r>    -3.8772     0.0000   420.0000 </r>
       <r>    -3.7726     0.0000   420.0000 </r>
       <r>    -3.6679     0.0000   420.0000 </r>
       <r>    -3.5632     0.0000   420.0000 </r>
       <r>    -3.4586     0.0000   420.0000 </r>
       <r>    -3.3539     0.0000   420.0000 </r>
       <r>    -3.2493     0.0000   420.0000 </r>
       <r>    -3.1446     0.0000   420.0000 </r>
       <r>    -3.0399     0.0000   420.0000 </r>
       <r>    -2.9353     0.0000   420.0000 </r>
       <r>    -2.8306     0.0000   420.0000 </r>
       <r>    -2.7259     0.0000   420.0000 </r>
       <r>    -2.6213     0.0000   420.0000 </r>
       <r>    -2.5166     0.0000   420.0000 </r>
       <r>    -2.4120     0.0000   420.0000 </r>
       <r>    -2.3073     0.0000   420.0000 </r>
       <r>    -2.2026     0.0000   420.0000 </r>
       <r>    -2.0980     0.0000   420.0000 </r>
       <r>    -1.9933     0.0000   420.0000 </r>
       <r>    -1.8887    31.3986   423.2862 </r>
       <r>    -1.7840     0.0000   424.0000 </r>
       <r>    -1.6793    44.9236   428.7018 </r>
       <r>    -1.5747     0.0000   430.0000 </r>
       <r>    -1.4700    17.6007   431.8421 </r>
       <r>    -1.3653     0.0000   432.0000 </r>
       <r>    -1.2607     0.0000   432.0000 </r>
       <r>    -1.1560     0.0000   432.0000 </r>
       <r>    -1.0514     0.0000   432.0000 </r>
       <r>    -0.9467     0.0000   432.0000 </r>
       <r>    -0.8420     0.0000   432.0000 </r>
       <r>    -0.7374     0.0000   432.0000 </r>
       <r>    -0.6327     0.0142   432.0015 </r>
       <r>    -0.5281    31.6718   436.2815 </r>
       <r>    -0.4234    63.3616   443.4982 </r>
       <r>    -0.3187     0.0000   444.0000 </r>
       <r>    -0.2141     3.0214   444.3162 </r>
       <r>    -0.1094    22.9506   448.5354 </r>
       <r>    -0.0047    22.3643   451.0740 </r>
       <r>     0.0999    21.3162   454.0310 </r>
       <r>     0.2046    29.3008   458.0000 </r>
       <r>     0.3092    10.7595   459.1261 </r>
       <r>     0.4139    21.1185   462.8103 </r>
       <r>     0.5186    22.9177   466.4653 </r>
       <r>     0.6232    37.1699   470.5569 </r>
       <r>     0.7279    53.7464   476.4252 </r>
       <r>     0.8325    29.9848   481.0716 </r>
       <r>     0.9372    42.6979   487.4355 </r>
       <r>     1.0419    31.6227   492.2430 </r>
       <r>     1.1465    68.0783   501.3252 </r>
       <r>     1.2512    49.4521   507.8758 </r>
       <r>     1.3558    42.5564   514.0207 </r>
       <r>     1.4605    61.6168   522.0156 </r>
       <r>     1.5652    50.7402   528.6106 </r>
       <r>     1.6698    54.2774   535.8141 </r>
       <r>     1.7745    68.7617   543.9967 </r>
       <r>     1.8792    56.4655   550.9098 </r>
       <r>     1.9838    47.3460   557.4553 </r>
       <r>     2.0885    64.9679   565.9997 </r>
       <r>     2.1931    59.8288   574.8285 </r>
       <r>     2.2978     3.8218   576.0000 </r>
       <r>     2.4025     0.0000   576.0000 </r>
       <r>     2.5071     0.0000   576.0000 </r>
       <r>     2.6118     0.0000   576.0000 </r>
       <r>     2.7164     0.0000   576.0000 </r>
       <r>     2.8211     0.0000   576.0000 </r>
       <r>     2.9258     0.0000   576.0000 </r>
       <r>     3.0304     0.0000   576.0000 </r>
       <r>     3.1351     0.0000   576.0000 </r>
       <r>     3.2398     0.0000   576.0000 </r>
       <r>     3.3444     0.0000   576.0000 </r>
       <r>     3.4491     0.0000   576.0000 </r>
       <r>     3.5537     0.0000   576.0000 </r>
       <r>     3.6584     0.0000   576.0000 </r>
      </set>
     </set>
    </array>
   </total>
  </dos>
 </calculation>
 <structure name="finalpos" >
  <crystal>
   <varray name="basis" >
    <v>      21.73915125      -0.01347458       0.00000000 </v>
    <v>     -10.87121125      18.82425996       0.00000000 </v>
    <v>       0.00000000       0.00000000      20.00000000 </v>
   </varray>
   <i name="volume">   8181.53899131 </i>
   <varray name="rec_basis" >
    <v>       0.04601643       0.02657498       0.00000000 </v>
    <v>       0.00003294       0.05314196       0.00000000 </v>
    <v>       0.00000000       0.00000000       0.05000000 </v>
   </varray>
  </crystal>
  <varray name="positions" >
   <v>       0.92922657       0.86587494       0.56974934 </v>
   <v>       0.13871817       0.04952326       0.56834375 </v>
   <v>       0.88428352       0.70397214       0.51027141 </v>
   <v>       0.96272821       0.72844241       0.46099524 </v>
   <v>       0.95607587       0.69427072       0.54352896 </v>
   <v>       0.29942045       0.16522420       0.50696808 </v>
   <v>       0.33652199       0.03809243       0.61356898 </v>
   <v>       0.27279565       0.05467586       0.57139672 </v>
   <v>       0.25293772       0.01544632       0.65255520 </v>
   <v>       0.29488971       0.90685440       0.49871464 </v>
   <v>       0.09541190       0.70903639       0.49927294 </v>
   <v>       0.35153987       0.78881694       0.22408166 </v>
   <v>       0.44283383       0.83935720       0.25118036 </v>
   <v>       0.02490927       0.55437030       0.62228586 </v>
   <v>       0.01215895       0.48203828       0.56893420 </v>
   <v>       0.95523111       0.07534838       0.56985778 </v>
   <v>       0.27780480       0.72241793       0.40182472 </v>
   <v>       0.09852686       0.37438461       0.49784028 </v>
   <v>       0.29601808       0.37241040       0.49863565 </v>
   <v>       0.28329643       0.54176687       0.40115619 </v>
   <v>       0.63026613       0.71009300       0.49998417 </v>
   <v>       0.63233271       0.90962834       0.50112385 </v>
   <v>       0.46420605       0.72816962       0.40155238 </v>
   <v>       0.27459987       0.21932692       0.45838308 </v>
   <v>       0.31016543       0.24706506       0.54047080 </v>
   <v>       0.83866897       0.12022969       0.51057595 </v>
   <v>       0.78469354       0.04132607       0.46184268 </v>
   <v>       0.75694161       0.04879696       0.54401547 </v>
   <v>       0.21863806       0.55057028       0.22353178 </v>
   <v>       0.16768323       0.59083077       0.25055216 </v>
   <v>       0.25712427       0.62670060       0.27846529 </v>
   <v>       0.45643004       0.65593477       0.22411930 </v>
   <v>       0.41562285       0.56445015       0.25058610 </v>
   <v>       0.38011765       0.61817869       0.27882057 </v>
   <v>       0.38882270       0.74983695       0.27877897 </v>
   <v>       0.96812515       0.28588658       0.61366503 </v>
   <v>       0.95085878       0.20510672       0.57195165 </v>
   <v>       0.99071098       0.22501249       0.65285272 </v>
   <v>       0.71855449       0.66806288       0.61610556 </v>
   <v>       0.79893901       0.73135754       0.57363907 </v>
   <v>       0.78020048       0.75157533       0.65491357 </v>
   <v>       0.09449406       0.53282173       0.61214382 </v>
   <v>       0.44986723       0.45541032       0.62186889 </v>
   <v>       0.52246095       0.51528825       0.56886031 </v>
   <v>       0.47184421       0.54678689       0.61235643 </v>
   <v>       0.54819786       0.97909783       0.62410254 </v>
   <v>       0.48909383       0.99273747       0.57093251 </v>
   <v>       0.45699036       0.90979188       0.61315497 </v>
   <v>       0.96955602       0.79693711       0.53844664 </v>
   <v>       0.25287453       0.94965465       0.57546867 </v>
   <v>       0.20715626       0.15806398       0.53660289 </v>
   <v>       0.84611618       0.03519731       0.53982755 </v>
   <v>       0.18431759       0.52723664       0.31907814 </v>
   <v>       0.47922305       0.64409713       0.31962310 </v>
   <v>       0.36261560       0.82268818       0.31979182 </v>
   <v>       0.05605905       0.29000856       0.57519659 </v>
   <v>       0.71444527       0.75205905       0.57810093 </v>
   <v>       0.07663737       0.58638703       0.53385342 </v>
   <v>       0.41828322       0.47594794       0.53363670 </v>
   <v>       0.52890084       0.92854021       0.53507778 </v>
   <v>       0.14403045       0.94406513       0.57385971 </v>
   <v>       0.08047025       0.80923998       0.52490382 </v>
   <v>       0.19548156       0.25710848       0.52374525 </v>
   <v>       0.74736409       0.92433829       0.52664375 </v>
   <v>       0.17153584       0.61095430       0.38054262 </v>
   <v>       0.39495119       0.54723287       0.38046223 </v>
   <v>       0.45886000       0.83462063       0.38125324 </v>
   <v>       0.06106806       0.18640869       0.57391228 </v>
   <v>       0.81832584       0.86066049       0.57587483 </v>
   <v>       0.11999919       0.51807019       0.48558302 </v>
   <v>       0.48712837       0.58791419       0.48597718 </v>
   <v>       0.41730070       0.88535912       0.48668455 </v>
   <v>       0.03798170       0.95262944       0.56939487 </v>
   <v>       0.08159831       0.02722275       0.56956138 </v>
   <v>       0.96412693       0.92302528       0.57038256 </v>
   <v>       0.04165795       0.83773632       0.54270358 </v>
   <v>       0.07339510       0.90991659       0.56361260 </v>
   <v>       0.94203906       0.72654502       0.51155788 </v>
   <v>       0.19011892       0.81244584       0.49992290 </v>
   <v>       0.15172018       0.84563475       0.52984948 </v>
   <v>       0.18224323       0.91383867       0.56023944 </v>
   <v>       0.27995879       0.01878986       0.60510706 </v>
   <v>       0.18233479       0.70677770       0.44895939 </v>
   <v>       0.29465357       0.81946314       0.44779775 </v>
   <v>       0.26295196       0.85155119       0.48376769 </v>
   <v>       0.15082367       0.73939415       0.48415363 </v>
   <v>       0.38853528       0.79878581       0.26531098 </v>
   <v>       0.05060659       0.53532374       0.58749292 </v>
   <v>       0.05207585       0.07151827       0.56938257 </v>
   <v>       0.97750958       0.04051786       0.57046932 </v>
   <v>       0.93319798       0.96663350       0.57032262 </v>
   <v>       0.25344326       0.74823472       0.42885572 </v>
   <v>       0.29863252       0.46179250       0.44832483 </v>
   <v>       0.25733000       0.49152531       0.42812628 </v>
   <v>       0.18607680       0.46151627       0.44693594 </v>
   <v>       0.15381361       0.39768092       0.48290902 </v>
   <v>       0.19275687       0.36385431       0.49910589 </v>
   <v>       0.26581378       0.39756033       0.48342011 </v>
   <v>       0.54353862       0.82317231       0.44979906 </v>
   <v>       0.51407560       0.75226321       0.42912988 </v>
   <v>       0.54384034       0.71088652       0.44814771 </v>
   <v>       0.60718482       0.74220297       0.48486655 </v>
   <v>       0.64082137       0.81488786       0.50151276 </v>
   <v>       0.60732327       0.85434632       0.48560866 </v>
   <v>       0.16681331       0.18977933       0.54164429 </v>
   <v>       0.09487850       0.14966818       0.56333440 </v>
   <v>       0.27718761       0.20065251       0.50880971 </v>
   <v>       0.81469524       0.96310292       0.54439292 </v>
   <v>       0.85500307       0.93127061       0.56529549 </v>
   <v>       0.80335971       0.06249921       0.51229381 </v>
   <v>       0.15308814       0.50575774       0.43509298 </v>
   <v>       0.16849122       0.54884288       0.37714467 </v>
   <v>       0.20834359       0.57731970       0.26478945 </v>
   <v>       0.49980045       0.63370249       0.43573063 </v>
   <v>       0.45713431       0.60633592       0.37749708 </v>
   <v>       0.42937685       0.61861758       0.26514082 </v>
   <v>       0.37196346       0.85261882       0.43605338 </v>
   <v>       0.39983935       0.83777044       0.37794514 </v>
   <v>       0.15943001       0.29222836       0.52906660 </v>
   <v>       0.09144743       0.25483612       0.55993144 </v>
   <v>       0.98711494       0.24837878       0.60531275 </v>
   <v>       0.71226905       0.85312969       0.53181712 </v>
   <v>       0.74974351       0.82258885       0.56249622 </v>
   <v>       0.75616311       0.72454739       0.60755328 </v>
   <v>       0.11342600       0.57563441       0.48472113 </v>
   <v>       0.15019916       0.62970653       0.43620574 </v>
   <v>       0.42949656       0.52378700       0.48468103 </v>
   <v>       0.37576078       0.50680061       0.43592349 </v>
   <v>       0.46919277       0.50047010       0.58739018 </v>
   <v>       0.48143401       0.89195380       0.48579498 </v>
   <v>       0.49876455       0.85543765       0.43707973 </v>
   <v>       0.50363601       0.95395102       0.58902432 </v>
  </varray>
 </structure>
</modeling>
