<?xml version="1.0" encoding="ISO-8859-1"?>
<modeling>
 <generator>
  <i name="program" type="string">vasp </i>
  <i name="version" type="string">5.4.4.18Apr17-6-g9f103f2a35  </i>
  <i name="subversion" type="string">(build Jun 07 2020 16:50:00) complex            parallel </i>
  <i name="platform" type="string">LinuxIFC </i>
  <i name="date" type="string">2023 02 28 </i>
  <i name="time" type="string">04:10:59 </i>
 </generator>
 <incar>
  <i type="string" name="SYSTEM">Simulation for cell shape cell volume r</i>
  <i type="int" name="ISTART">     1</i>
  <i type="string" name="PREC">high</i>
  <i type="string" name="ALGO">48</i>
  <i type="int" name="ICHARG">    11</i>
  <i type="int" name="NELM">   200</i>
  <i type="int" name="IBRION">    -1</i>
  <i name="EDIFF">      0.00001000</i>
  <i name="EDIFFG">     -0.01000000</i>
  <i type="int" name="NSW">     0</i>
  <i type="int" name="ISIF">     2</i>
  <i name="ENCUT">    500.00000000</i>
  <i name="POTIM">      0.30000000</i>
  <i type="string" name="LREAL">A</i>
  <i type="int" name="ISMEAR">     0</i>
  <i name="SIGMA">      0.01000000</i>
  <i type="int" name="NWRITE">     0</i>
  <i type="logical" name="LWAVE"> F  </i>
  <i type="logical" name="LCHARG"> F  </i>
  <v type="int" name="KPOINT_BSE">    -1     0     0     0</v>
  <i type="int" name="NELM">   200</i>
  <i type="string" name="GGA">PE</i>
 </incar>
 <structure name="primitive_cell" >
  <crystal>
   <varray name="basis" >
    <v>      21.82270768      -0.11477742       0.00000000 </v>
    <v>     -11.00039879      18.94057972       0.00000000 </v>
    <v>       0.00000000       0.00000000      20.00000000 </v>
   </varray>
   <i name="volume">   8241.44274168 </i>
   <varray name="rec_basis" >
    <v>       0.04596423       0.02669532       0.00000000 </v>
    <v>       0.00027854       0.05295846       0.00000000 </v>
    <v>       0.00000000       0.00000000       0.05000000 </v>
   </varray>
  </crystal>
  <varray name="positions" >
   <v>      -0.04370965      -0.24630677      -0.39461532 </v>
   <v>       0.00210437      -0.18958610      -0.37009696 </v>
   <v>      -0.00138541      -0.16390337      -0.31613265 </v>
   <v>       0.06905109      -0.14660724      -0.40896526 </v>
   <v>      -0.05370490      -0.13432247      -0.43727554 </v>
   <v>       0.10356751      -0.17996240      -0.42266254 </v>
   <v>       0.09275005      -0.07565128      -0.42675144 </v>
   <v>      -0.02324033      -0.07682686      -0.43312021 </v>
   <v>       0.05087031      -0.03982110      -0.42661864 </v>
   <v>       0.10715713      -0.28295002      -0.46877520 </v>
   <v>       0.16809889      -0.14275465      -0.45118157 </v>
   <v>      -0.16173375      -0.14369052      -0.48490204 </v>
   <v>       0.15962666      -0.03782863      -0.45041862 </v>
   <v>      -0.06047747      -0.04036664      -0.43876297 </v>
   <v>       0.19713325      -0.06928715      -0.46074809 </v>
   <v>       0.16258903      -0.25490715      -0.48473118 </v>
   <v>       0.20330757      -0.18102951      -0.47520686 </v>
   <v>      -0.13764592      -0.08205945      -0.45181065 </v>
   <v>      -0.24605356      -0.23023856       0.47055386 </v>
   <v>       0.08768718       0.03441051      -0.42673757 </v>
   <v>      -0.22955981      -0.18053654       0.49677202 </v>
   <v>       0.14545660       0.06351264      -0.42420642 </v>
   <v>       0.25111679      -0.03546581      -0.47938061 </v>
   <v>      -0.02300663       0.03392571      -0.43829492 </v>
   <v>       0.10586956      -0.41100487      -0.43013290 </v>
   <v>       0.19244871      -0.29034211       0.48321228 </v>
   <v>       0.05126591       0.07141430      -0.43273274 </v>
   <v>      -0.18820568      -0.06232252      -0.43566493 </v>
   <v>       0.27564824      -0.14402760      -0.49288032 </v>
   <v>      -0.27717946      -0.15591210      -0.49189458 </v>
   <v>       0.15777336      -0.36784977       0.47270821 </v>
   <v>       0.12782980      -0.41949875      -0.47591699 </v>
   <v>      -0.14707266      -0.00281365      -0.33487689 </v>
   <v>       0.30919722      -0.08769460      -0.48247098 </v>
   <v>      -0.05086765       0.06281911      -0.44697004 </v>
   <v>      -0.25458585      -0.09612423      -0.45636808 </v>
   <v>      -0.36228245      -0.29539140       0.47034963 </v>
   <v>      -0.17080817      -0.00117636      -0.39056586 </v>
   <v>       0.26300186      -0.25150577       0.46088908 </v>
   <v>       0.30548347      -0.17912203       0.47450510 </v>
   <v>       0.09333111       0.14907396      -0.44055098 </v>
   <v>       0.16667397      -0.38913707       0.41256601 </v>
   <v>      -0.35005296      -0.19076775       0.48085150 </v>
   <v>      -0.38544563      -0.26224667       0.46127164 </v>
   <v>       0.13053902      -0.47879417      -0.48038509 </v>
   <v>       0.15402621       0.17496183      -0.47586712 </v>
   <v>       0.02145435       0.14978369      -0.31599878 </v>
   <v>       0.28570833      -0.27934072       0.43504201 </v>
   <v>      -0.18188666       0.04505002      -0.41246190 </v>
   <v>       0.01579911       0.17702271      -0.36809457 </v>
   <v>       0.15939897      -0.45213738       0.40655884 </v>
   <v>       0.07442643       0.19821480      -0.41768158 </v>
   <v>       0.38124641      -0.14679398       0.45630676 </v>
   <v>       0.15376415      -0.49339760       0.46314877 </v>
   <v>       0.32778294      -0.13845833       0.33062121 </v>
   <v>      -0.38401320      -0.15091435       0.47435125 </v>
   <v>      -0.45233160      -0.29235466       0.43101420 </v>
   <v>      -0.35666606      -0.09653052       0.49268505 </v>
   <v>       0.49313339      -0.41563647       0.46498273 </v>
   <v>      -0.03224899       0.18857923      -0.38283634 </v>
   <v>       0.19004242       0.24350417      -0.49087052 </v>
   <v>       0.43175222      -0.11540021      -0.49679579 </v>
   <v>      -0.49885702      -0.36861432       0.41773962 </v>
   <v>       0.36158792      -0.17010874       0.33179629 </v>
   <v>       0.15791775      -0.47800128       0.33708459 </v>
   <v>       0.40296435      -0.16058323       0.39434570 </v>
   <v>       0.23880805       0.26156946       0.48042548 </v>
   <v>       0.10729944       0.26552055      -0.43489351 </v>
   <v>       0.18611278      -0.43382041       0.29232037 </v>
   <v>       0.42965129       0.48454784      -0.49402516 </v>
   <v>      -0.45087774      -0.18081837       0.44426786 </v>
   <v>      -0.48322807      -0.25061934       0.42072923 </v>
   <v>       0.43291649      -0.47779421       0.46832574 </v>
   <v>       0.18766135       0.46291034       0.46581905 </v>
   <v>       0.16553346       0.28992972      -0.47356848 </v>
   <v>       0.12731750       0.45659458       0.33090611 </v>
   <v>       0.10548197       0.37095373      -0.48206930 </v>
   <v>       0.36418536      -0.20744465       0.28722792 </v>
   <v>      -0.46868701      -0.32532653       0.28326420 </v>
   <v>       0.49412826      -0.11184394       0.49513446 </v>
   <v>       0.27939649      -0.45363630       0.41473366 </v>
   <v>       0.45099892      -0.39481052       0.36500074 </v>
   <v>       0.15911104       0.39709057       0.49734906 </v>
   <v>       0.45995019      -0.16595375       0.38903257 </v>
   <v>       0.25642886       0.49483259       0.43916890 </v>
   <v>       0.46418414      -0.27363635       0.39808826 </v>
   <v>      -0.46524609      -0.08361235      -0.46678996 </v>
   <v>       0.46726476      -0.35930338       0.29827754 </v>
   <v>      -0.49607678      -0.14846615       0.44150217 </v>
   <v>       0.37424447      -0.49081980       0.42761314 </v>
   <v>       0.19918390       0.36321934      -0.49892222 </v>
   <v>       0.38785454      -0.45108920       0.37258700 </v>
   <v>       0.30257109       0.37396508       0.48451279 </v>
   <v>       0.29894931       0.46434115       0.44728252 </v>
   <v>       0.26994626       0.39823660       0.47824482 </v>
   <v>       0.41724762      -0.36630206       0.26404903 </v>
  </varray>
 </structure>
 <varray name="primitive_index" >
  <v type="int" >        1 </v>
  <v type="int" >       80 </v>
  <v type="int" >        2 </v>
  <v type="int" >       36 </v>
  <v type="int" >       14 </v>
  <v type="int" >       81 </v>
  <v type="int" >       35 </v>
  <v type="int" >       34 </v>
  <v type="int" >       32 </v>
  <v type="int" >       17 </v>
  <v type="int" >       38 </v>
  <v type="int" >       83 </v>
  <v type="int" >       79 </v>
  <v type="int" >       60 </v>
  <v type="int" >       31 </v>
  <v type="int" >       42 </v>
  <v type="int" >       37 </v>
  <v type="int" >       74 </v>
  <v type="int" >       23 </v>
  <v type="int" >       33 </v>
  <v type="int" >       51 </v>
  <v type="int" >       15 </v>
  <v type="int" >       13 </v>
  <v type="int" >       59 </v>
  <v type="int" >       28 </v>
  <v type="int" >       39 </v>
  <v type="int" >       58 </v>
  <v type="int" >       75 </v>
  <v type="int" >       41 </v>
  <v type="int" >       57 </v>
  <v type="int" >       68 </v>
  <v type="int" >       76 </v>
  <v type="int" >       12 </v>
  <v type="int" >       16 </v>
  <v type="int" >       24 </v>
  <v type="int" >       92 </v>
  <v type="int" >       20 </v>
  <v type="int" >       93 </v>
  <v type="int" >       61 </v>
  <v type="int" >       40 </v>
  <v type="int" >       71 </v>
  <v type="int" >       84 </v>
  <v type="int" >       49 </v>
  <v type="int" >       48 </v>
  <v type="int" >       94 </v>
  <v type="int" >       82 </v>
  <v type="int" >       10 </v>
  <v type="int" >       25 </v>
  <v type="int" >       11 </v>
  <v type="int" >       91 </v>
  <v type="int" >       52 </v>
  <v type="int" >       73 </v>
  <v type="int" >       69 </v>
  <v type="int" >       67 </v>
  <v type="int" >        3 </v>
  <v type="int" >       66 </v>
  <v type="int" >       47 </v>
  <v type="int" >       27 </v>
  <v type="int" >       95 </v>
  <v type="int" >        9 </v>
  <v type="int" >       50 </v>
  <v type="int" >       96 </v>
  <v type="int" >       53 </v>
  <v type="int" >       89 </v>
  <v type="int" >       85 </v>
  <v type="int" >       56 </v>
  <v type="int" >       22 </v>
  <v type="int" >       90 </v>
  <v type="int" >        5 </v>
  <v type="int" >       29 </v>
  <v type="int" >       45 </v>
  <v type="int" >       46 </v>
  <v type="int" >       77 </v>
  <v type="int" >       63 </v>
  <v type="int" >       72 </v>
  <v type="int" >        4 </v>
  <v type="int" >       26 </v>
  <v type="int" >        8 </v>
  <v type="int" >        7 </v>
  <v type="int" >       78 </v>
  <v type="int" >       19 </v>
  <v type="int" >       55 </v>
  <v type="int" >       64 </v>
  <v type="int" >       88 </v>
  <v type="int" >       62 </v>
  <v type="int" >       21 </v>
  <v type="int" >       30 </v>
  <v type="int" >       87 </v>
  <v type="int" >       70 </v>
  <v type="int" >       54 </v>
  <v type="int" >       65 </v>
  <v type="int" >       86 </v>
  <v type="int" >       18 </v>
  <v type="int" >       43 </v>
  <v type="int" >       44 </v>
  <v type="int" >        6 </v>
 </varray>
 <kpoints>
  <generation param="listgenerated">
   <i name="divisions" type="int">      20 </i>
   <v>       0.00000000       0.00000000       0.00000000 </v>
   <v>       0.50000000      -0.50000000       0.00000000 </v>
   <v>       0.66691395      -0.33058204       0.00000000 </v>
   <v>       0.50000000       0.00000000       0.00000000 </v>
   <v>       0.33308605       0.33058204       0.00000000 </v>
   <v>       0.00000000       0.50000000       0.00000000 </v>
   <v>       0.00000000       0.00000000       0.00000000 </v>
  </generation>
  <varray name="kpointlist" >
   <v>       0.00000000       0.00000000       0.00000000 </v>
   <v>       0.02631579      -0.02631579       0.00000000 </v>
   <v>       0.05263158      -0.05263158       0.00000000 </v>
   <v>       0.07894737      -0.07894737       0.00000000 </v>
   <v>       0.10526316      -0.10526316       0.00000000 </v>
   <v>       0.13157895      -0.13157895       0.00000000 </v>
   <v>       0.15789474      -0.15789474       0.00000000 </v>
   <v>       0.18421053      -0.18421053       0.00000000 </v>
   <v>       0.21052632      -0.21052632       0.00000000 </v>
   <v>       0.23684211      -0.23684211       0.00000000 </v>
   <v>       0.26315789      -0.26315789       0.00000000 </v>
   <v>       0.28947368      -0.28947368       0.00000000 </v>
   <v>       0.31578947      -0.31578947       0.00000000 </v>
   <v>       0.34210526      -0.34210526       0.00000000 </v>
   <v>       0.36842105      -0.36842105       0.00000000 </v>
   <v>       0.39473684      -0.39473684       0.00000000 </v>
   <v>       0.42105263      -0.42105263       0.00000000 </v>
   <v>       0.44736842      -0.44736842       0.00000000 </v>
   <v>       0.47368421      -0.47368421       0.00000000 </v>
   <v>       0.50000000      -0.50000000       0.00000000 </v>
   <v>       0.50000000      -0.50000000       0.00000000 </v>
   <v>       0.50878494      -0.49108327       0.00000000 </v>
   <v>       0.51756989      -0.48216653       0.00000000 </v>
   <v>       0.52635483      -0.47324980       0.00000000 </v>
   <v>       0.53513978      -0.46433306       0.00000000 </v>
   <v>       0.54392472      -0.45541633       0.00000000 </v>
   <v>       0.55270967      -0.44649959       0.00000000 </v>
   <v>       0.56149461      -0.43758286       0.00000000 </v>
   <v>       0.57027956      -0.42866612       0.00000000 </v>
   <v>       0.57906450      -0.41974939       0.00000000 </v>
   <v>       0.58784945      -0.41083265       0.00000000 </v>
   <v>       0.59663439      -0.40191592       0.00000000 </v>
   <v>       0.60541934      -0.39299918       0.00000000 </v>
   <v>       0.61420428      -0.38408245       0.00000000 </v>
   <v>       0.62298923      -0.37516571       0.00000000 </v>
   <v>       0.63177417      -0.36624898       0.00000000 </v>
   <v>       0.64055912      -0.35733224       0.00000000 </v>
   <v>       0.64934406      -0.34841551       0.00000000 </v>
   <v>       0.65812901      -0.33949877       0.00000000 </v>
   <v>       0.66691395      -0.33058204       0.00000000 </v>
   <v>       0.66691395      -0.33058204       0.00000000 </v>
   <v>       0.65812901      -0.31318298       0.00000000 </v>
   <v>       0.64934406      -0.29578393       0.00000000 </v>
   <v>       0.64055912      -0.27838487       0.00000000 </v>
   <v>       0.63177417      -0.26098582       0.00000000 </v>
   <v>       0.62298923      -0.24358676       0.00000000 </v>
   <v>       0.61420428      -0.22618771       0.00000000 </v>
   <v>       0.60541934      -0.20878866       0.00000000 </v>
   <v>       0.59663439      -0.19138960       0.00000000 </v>
   <v>       0.58784945      -0.17399055       0.00000000 </v>
   <v>       0.57906450      -0.15659149       0.00000000 </v>
   <v>       0.57027956      -0.13919244       0.00000000 </v>
   <v>       0.56149461      -0.12179338       0.00000000 </v>
   <v>       0.55270967      -0.10439433       0.00000000 </v>
   <v>       0.54392472      -0.08699527       0.00000000 </v>
   <v>       0.53513978      -0.06959622       0.00000000 </v>
   <v>       0.52635483      -0.05219716       0.00000000 </v>
   <v>       0.51756989      -0.03479811       0.00000000 </v>
   <v>       0.50878494      -0.01739905       0.00000000 </v>
   <v>       0.50000000       0.00000000       0.00000000 </v>
   <v>       0.50000000       0.00000000       0.00000000 </v>
   <v>       0.49121506       0.01739905       0.00000000 </v>
   <v>       0.48243011       0.03479811       0.00000000 </v>
   <v>       0.47364517       0.05219716       0.00000000 </v>
   <v>       0.46486022       0.06959622       0.00000000 </v>
   <v>       0.45607528       0.08699527       0.00000000 </v>
   <v>       0.44729033       0.10439433       0.00000000 </v>
   <v>       0.43850539       0.12179338       0.00000000 </v>
   <v>       0.42972044       0.13919244       0.00000000 </v>
   <v>       0.42093550       0.15659149       0.00000000 </v>
   <v>       0.41215055       0.17399055       0.00000000 </v>
   <v>       0.40336561       0.19138960       0.00000000 </v>
   <v>       0.39458066       0.20878866       0.00000000 </v>
   <v>       0.38579572       0.22618771       0.00000000 </v>
   <v>       0.37701077       0.24358676       0.00000000 </v>
   <v>       0.36822583       0.26098582       0.00000000 </v>
   <v>       0.35944088       0.27838487       0.00000000 </v>
   <v>       0.35065594       0.29578393       0.00000000 </v>
   <v>       0.34187099       0.31318298       0.00000000 </v>
   <v>       0.33308605       0.33058204       0.00000000 </v>
   <v>       0.33308605       0.33058204       0.00000000 </v>
   <v>       0.31555520       0.33949877       0.00000000 </v>
   <v>       0.29802436       0.34841551       0.00000000 </v>
   <v>       0.28049351       0.35733224       0.00000000 </v>
   <v>       0.26296267       0.36624898       0.00000000 </v>
   <v>       0.24543182       0.37516571       0.00000000 </v>
   <v>       0.22790098       0.38408245       0.00000000 </v>
   <v>       0.21037013       0.39299918       0.00000000 </v>
   <v>       0.19283929       0.40191592       0.00000000 </v>
   <v>       0.17530845       0.41083265       0.00000000 </v>
   <v>       0.15777760       0.41974939       0.00000000 </v>
   <v>       0.14024676       0.42866612       0.00000000 </v>
   <v>       0.12271591       0.43758286       0.00000000 </v>
   <v>       0.10518507       0.44649959       0.00000000 </v>
   <v>       0.08765422       0.45541633       0.00000000 </v>
   <v>       0.07012338       0.46433306       0.00000000 </v>
   <v>       0.05259253       0.47324980       0.00000000 </v>
   <v>       0.03506169       0.48216653       0.00000000 </v>
   <v>       0.01753084       0.49108327       0.00000000 </v>
   <v>       0.00000000       0.50000000       0.00000000 </v>
   <v>       0.00000000       0.50000000       0.00000000 </v>
   <v>       0.00000000       0.47368421       0.00000000 </v>
   <v>       0.00000000       0.44736842       0.00000000 </v>
   <v>       0.00000000       0.42105263       0.00000000 </v>
   <v>       0.00000000       0.39473684       0.00000000 </v>
   <v>       0.00000000       0.36842105       0.00000000 </v>
   <v>       0.00000000       0.34210526       0.00000000 </v>
   <v>       0.00000000       0.31578947       0.00000000 </v>
   <v>       0.00000000       0.28947368       0.00000000 </v>
   <v>       0.00000000       0.26315789       0.00000000 </v>
   <v>       0.00000000       0.23684211       0.00000000 </v>
   <v>       0.00000000       0.21052632       0.00000000 </v>
   <v>       0.00000000       0.18421053       0.00000000 </v>
   <v>       0.00000000       0.15789474       0.00000000 </v>
   <v>       0.00000000       0.13157895       0.00000000 </v>
   <v>       0.00000000       0.10526316       0.00000000 </v>
   <v>       0.00000000       0.07894737       0.00000000 </v>
   <v>       0.00000000       0.05263158       0.00000000 </v>
   <v>       0.00000000       0.02631579       0.00000000 </v>
   <v>       0.00000000       0.00000000       0.00000000 </v>
  </varray>
  <varray name="weights" >
   <v>       0.00833333 </v>
   <v>       0.00833333 </v>
   <v>       0.00833333 </v>
   <v>       0.00833333 </v>
   <v>       0.00833333 </v>
   <v>       0.00833333 </v>
   <v>       0.00833333 </v>
   <v>       0.00833333 </v>
   <v>       0.00833333 </v>
   <v>       0.00833333 </v>
   <v>       0.00833333 </v>
   <v>       0.00833333 </v>
   <v>       0.00833333 </v>
   <v>       0.00833333 </v>
   <v>       0.00833333 </v>
   <v>       0.00833333 </v>
   <v>       0.00833333 </v>
   <v>       0.00833333 </v>
   <v>       0.00833333 </v>
   <v>       0.00833333 </v>
   <v>       0.00833333 </v>
   <v>       0.00833333 </v>
   <v>       0.00833333 </v>
   <v>       0.00833333 </v>
   <v>       0.00833333 </v>
   <v>       0.00833333 </v>
   <v>       0.00833333 </v>
   <v>       0.00833333 </v>
   <v>       0.00833333 </v>
   <v>       0.00833333 </v>
   <v>       0.00833333 </v>
   <v>       0.00833333 </v>
   <v>       0.00833333 </v>
   <v>       0.00833333 </v>
   <v>       0.00833333 </v>
   <v>       0.00833333 </v>
   <v>       0.00833333 </v>
   <v>       0.00833333 </v>
   <v>       0.00833333 </v>
   <v>       0.00833333 </v>
   <v>       0.00833333 </v>
   <v>       0.00833333 </v>
   <v>       0.00833333 </v>
   <v>       0.00833333 </v>
   <v>       0.00833333 </v>
   <v>       0.00833333 </v>
   <v>       0.00833333 </v>
   <v>       0.00833333 </v>
   <v>       0.00833333 </v>
   <v>       0.00833333 </v>
   <v>       0.00833333 </v>
   <v>       0.00833333 </v>
   <v>       0.00833333 </v>
   <v>       0.00833333 </v>
   <v>       0.00833333 </v>
   <v>       0.00833333 </v>
   <v>       0.00833333 </v>
   <v>       0.00833333 </v>
   <v>       0.00833333 </v>
   <v>       0.00833333 </v>
   <v>       0.00833333 </v>
   <v>       0.00833333 </v>
   <v>       0.00833333 </v>
   <v>       0.00833333 </v>
   <v>       0.00833333 </v>
   <v>       0.00833333 </v>
   <v>       0.00833333 </v>
   <v>       0.00833333 </v>
   <v>       0.00833333 </v>
   <v>       0.00833333 </v>
   <v>       0.00833333 </v>
   <v>       0.00833333 </v>
   <v>       0.00833333 </v>
   <v>       0.00833333 </v>
   <v>       0.00833333 </v>
   <v>       0.00833333 </v>
   <v>       0.00833333 </v>
   <v>       0.00833333 </v>
   <v>       0.00833333 </v>
   <v>       0.00833333 </v>
   <v>       0.00833333 </v>
   <v>       0.00833333 </v>
   <v>       0.00833333 </v>
   <v>       0.00833333 </v>
   <v>       0.00833333 </v>
   <v>       0.00833333 </v>
   <v>       0.00833333 </v>
   <v>       0.00833333 </v>
   <v>       0.00833333 </v>
   <v>       0.00833333 </v>
   <v>       0.00833333 </v>
   <v>       0.00833333 </v>
   <v>       0.00833333 </v>
   <v>       0.00833333 </v>
   <v>       0.00833333 </v>
   <v>       0.00833333 </v>
   <v>       0.00833333 </v>
   <v>       0.00833333 </v>
   <v>       0.00833333 </v>
   <v>       0.00833333 </v>
   <v>       0.00833333 </v>
   <v>       0.00833333 </v>
   <v>       0.00833333 </v>
   <v>       0.00833333 </v>
   <v>       0.00833333 </v>
   <v>       0.00833333 </v>
   <v>       0.00833333 </v>
   <v>       0.00833333 </v>
   <v>       0.00833333 </v>
   <v>       0.00833333 </v>
   <v>       0.00833333 </v>
   <v>       0.00833333 </v>
   <v>       0.00833333 </v>
   <v>       0.00833333 </v>
   <v>       0.00833333 </v>
   <v>       0.00833333 </v>
   <v>       0.00833333 </v>
   <v>       0.00833333 </v>
   <v>       0.00833333 </v>
   <v>       0.00833333 </v>
  </varray>
 </kpoints>
 <parameters>
  <separator name="general" >
   <i type="string" name="SYSTEM">Simulation for cell shape cell volume r</i>
   <i type="logical" name="LCOMPAT"> F  </i>
  </separator>
  <separator name="electronic" >
   <i type="string" name="PREC">high</i>
   <i name="ENMAX">    500.00000000</i>
   <i name="ENAUG">    644.87300000</i>
   <i name="EDIFF">      0.00001000</i>
   <i type="int" name="IALGO">    38</i>
   <i type="int" name="IWAVPR">    10</i>
   <i type="int" name="NBANDS">   240</i>
   <i name="NELECT">    372.00000000</i>
   <i type="int" name="TURBO">     0</i>
   <i type="int" name="IRESTART">     0</i>
   <i type="int" name="NREBOOT">     0</i>
   <i type="int" name="NMIN">     0</i>
   <i name="EREF">      0.00000000</i>
   <separator name="electronic smearing" >
    <i type="int" name="ISMEAR">     0</i>
    <i name="SIGMA">      0.01000000</i>
    <i name="KSPACING">      0.50000000</i>
    <i type="logical" name="KGAMMA"> T  </i>
   </separator>
   <separator name="electronic projectors" >
    <i type="logical" name="LREAL"> T  </i>
    <v name="ROPT">     -0.00040000     -0.00040000     -0.00040000     -0.00040000</v>
    <i type="int" name="LMAXPAW">  -100</i>
    <i type="int" name="LMAXMIX">     2</i>
    <i type="logical" name="NLSPLINE"> F  </i>
   </separator>
   <separator name="electronic startup" >
    <i type="int" name="ISTART">     1</i>
    <i type="int" name="ICHARG">    11</i>
    <i type="int" name="INIWAV">     1</i>
   </separator>
   <separator name="electronic spin" >
    <i type="int" name="ISPIN">     1</i>
    <i type="logical" name="LNONCOLLINEAR"> F  </i>
    <v name="MAGMOM">      1.00000000      1.00000000      1.00000000      1.00000000      1.00000000      1.00000000      1.00000000      1.00000000      1.00000000      1.00000000      1.00000000      1.00000000      1.00000000      1.00000000      1.00000000      1.00000000      1.00000000      1.00000000      1.00000000      1.00000000
      1.00000000      1.00000000      1.00000000      1.00000000      1.00000000      1.00000000      1.00000000      1.00000000      1.00000000      1.00000000      1.00000000      1.00000000      1.00000000      1.00000000      1.00000000      1.00000000      1.00000000      1.00000000      1.00000000      1.00000000
      1.00000000      1.00000000      1.00000000      1.00000000      1.00000000      1.00000000      1.00000000      1.00000000      1.00000000      1.00000000      1.00000000      1.00000000      1.00000000      1.00000000      1.00000000      1.00000000      1.00000000      1.00000000      1.00000000      1.00000000
      1.00000000      1.00000000      1.00000000      1.00000000      1.00000000      1.00000000      1.00000000      1.00000000      1.00000000      1.00000000      1.00000000      1.00000000      1.00000000      1.00000000      1.00000000      1.00000000      1.00000000      1.00000000      1.00000000      1.00000000
      1.00000000      1.00000000      1.00000000      1.00000000      1.00000000      1.00000000      1.00000000      1.00000000      1.00000000      1.00000000      1.00000000      1.00000000      1.00000000      1.00000000      1.00000000      1.00000000</v>
    <i name="NUPDOWN">     -1.00000000</i>
    <i type="logical" name="LSORBIT"> F  </i>
    <v name="SAXIS">      0.00000000      0.00000000      1.00000000</v>
    <i type="logical" name="LSPIRAL"> F  </i>
    <v name="QSPIRAL">      0.00000000      0.00000000      0.00000000</v>
    <i type="logical" name="LZEROZ"> F  </i>
   </separator>
   <separator name="electronic exchange-correlation" >
    <i type="logical" name="LASPH"> F  </i>
    <i type="logical" name="LMETAGGA"> F  </i>
   </separator>
   <separator name="electronic convergence" >
    <i type="int" name="NELM">   200</i>
    <i type="int" name="NELMDL">     0</i>
    <i type="int" name="NELMIN">     2</i>
    <i name="ENINI">    500.00000000</i>
    <separator name="electronic convergence detail" >
     <i type="logical" name="LDIAG"> T  </i>
     <i type="logical" name="LSUBROT"> F  </i>
     <i name="WEIMIN">      0.00000000</i>
     <i name="EBREAK">      0.00000001</i>
     <i name="DEPER">      0.30000000</i>
     <i type="int" name="NRMM">     4</i>
     <i name="TIME">      0.40000000</i>
    </separator>
   </separator>
   <separator name="electronic mixer" >
    <i name="AMIX">      0.40000000</i>
    <i name="BMIX">      1.00000000</i>
    <i name="AMIN">      0.10000000</i>
    <i name="AMIX_MAG">      1.60000000</i>
    <i name="BMIX_MAG">      1.00000000</i>
    <separator name="electronic mixer details" >
     <i type="int" name="IMIX">     4</i>
     <i type="logical" name="MIXFIRST"> F  </i>
     <i type="int" name="MAXMIX">   -45</i>
     <i name="WC">    100.00000000</i>
     <i type="int" name="INIMIX">     1</i>
     <i type="int" name="MIXPRE">     1</i>
     <i type="int" name="MREMOVE">     5</i>
    </separator>
   </separator>
   <separator name="electronic dipolcorrection" >
    <i type="logical" name="LDIPOL"> F  </i>
    <i type="logical" name="LMONO"> F  </i>
    <i type="int" name="IDIPOL">     0</i>
    <i name="EPSILON">      1.00000000</i>
    <v name="DIPOL">   -100.00000000   -100.00000000   -100.00000000</v>
    <i name="EFIELD">      0.00000000</i>
   </separator>
  </separator>
  <separator name="grids" >
   <i type="int" name="NGX">   160</i>
   <i type="int" name="NGY">   160</i>
   <i type="int" name="NGZ">   150</i>
   <i type="int" name="NGXF">   240</i>
   <i type="int" name="NGYF">   250</i>
   <i type="int" name="NGZF">   224</i>
   <i type="logical" name="ADDGRID"> F  </i>
  </separator>
  <separator name="ionic" >
   <i type="int" name="NSW">     0</i>
   <i type="int" name="IBRION">    -1</i>
   <i type="int" name="MDALGO">     0</i>
   <i type="int" name="ISIF">     2</i>
   <i name="PSTRESS">      0.00000000</i>
   <i name="EDIFFG">     -0.01000000</i>
   <i type="int" name="NFREE">     0</i>
   <i name="POTIM">      0.30000000</i>
   <i name="SMASS">     -3.00000000</i>
   <i name="SCALEE">      1.00000000</i>
  </separator>
  <separator name="ionic md" >
   <i name="TEBEG">      0.00010000</i>
   <i name="TEEND">      0.00010000</i>
   <i type="int" name="NBLOCK">     1</i>
   <i type="int" name="KBLOCK">     1</i>
   <i type="int" name="NPACO">   256</i>
   <i name="APACO">     16.00000000</i>
  </separator>
  <separator name="symmetry" >
   <i type="int" name="ISYM">     2</i>
   <i name="SYMPREC">      0.00001000</i>
  </separator>
  <separator name="dos" >
   <i type="int" name="LORBIT">     0</i>
   <v name="RWIGS">     -1.00000000     -1.00000000     -1.00000000     -1.00000000</v>
   <i type="int" name="NEDOS">   301</i>
   <i name="EMIN">     10.00000000</i>
   <i name="EMAX">    -10.00000000</i>
   <i name="EFERMI">      0.00000000</i>
  </separator>
  <separator name="writing" >
   <i type="int" name="NWRITE">     0</i>
   <i type="logical" name="LWAVE"> F  </i>
   <i type="logical" name="LDOWNSAMPLE"> F  </i>
   <i type="logical" name="LCHARG"> F  </i>
   <i type="logical" name="LPARD"> F  </i>
   <i type="logical" name="LVTOT"> F  </i>
   <i type="logical" name="LVHAR"> F  </i>
   <i type="logical" name="LELF"> F  </i>
   <i type="logical" name="LOPTICS"> F  </i>
   <v name="STM">      0.00000000      0.00000000      0.00000000      0.00000000      0.00000000      0.00000000      0.00000000</v>
  </separator>
  <separator name="performance" >
   <i type="int" name="NPAR">    16</i>
   <i type="int" name="NSIM">     4</i>
   <i type="int" name="NBLK">    -1</i>
   <i type="logical" name="LPLANE"> T  </i>
   <i type="logical" name="LSCALAPACK"> T  </i>
   <i type="logical" name="LSCAAWARE"> F  </i>
   <i type="logical" name="LSCALU"> F  </i>
   <i type="logical" name="LASYNC"> F  </i>
   <i type="logical" name="LORBITALREAL"> F  </i>
  </separator>
  <separator name="miscellaneous" >
   <i type="int" name="IDIOT">     3</i>
   <i type="int" name="ISPECIAL">     0</i>
   <i type="logical" name="LMUSIC"> F  </i>
   <v name="POMASS">     16.00000000      1.00000000     12.01100000     14.00100000</v>
   <v name="DARWINR">      0.00000000      0.00000000      0.00000000      0.00000000</v>
   <v name="DARWINV">      1.00000000      1.00000000      1.00000000      1.00000000</v>
   <i type="logical" name="LCORR"> T  </i>
  </separator>
  <i type="logical" name="GGA_COMPAT"> T  </i>
  <i type="logical" name="LBERRY"> F  </i>
  <i type="int" name="ICORELEVEL">     0</i>
  <i type="logical" name="LDAU"> F  </i>
  <i type="int" name="I_CONSTRAINED_M">     0</i>
  <separator name="electronic exchange-correlation" >
   <i type="string" name="GGA">PE</i>
   <i type="int" name="VOSKOWN">     0</i>
   <i type="logical" name="LHFCALC"> F  </i>
   <i type="string" name="PRECFOCK"></i>
   <i type="logical" name="LSYMGRAD"> F  </i>
   <i type="logical" name="LHFONE"> F  </i>
   <i type="logical" name="LRHFCALC"> F  </i>
   <i type="logical" name="LTHOMAS"> F  </i>
   <i type="logical" name="LMODELHF"> F  </i>
   <i name="ENCUT4O">     -1.00000000</i>
   <i type="int" name="EXXOEP">     0</i>
   <i type="int" name="FOURORBIT">     0</i>
   <i name="AEXX">      0.00000000</i>
   <i name="HFALPHA">      0.00000000</i>
   <i name="MCALPHA">      0.00000000</i>
   <i name="ALDAX">      1.00000000</i>
   <i name="AGGAX">      1.00000000</i>
   <i name="ALDAC">      1.00000000</i>
   <i name="AGGAC">      1.00000000</i>
   <i type="int" name="NKREDX">     1</i>
   <i type="int" name="NKREDY">     1</i>
   <i type="int" name="NKREDZ">     1</i>
   <i type="logical" name="SHIFTRED"> F  </i>
   <i type="logical" name="ODDONLY"> F  </i>
   <i type="logical" name="EVENONLY"> F  </i>
   <i type="int" name="LMAXFOCK">     0</i>
   <i type="int" name="NMAXFOCKAE">     0</i>
   <i type="logical" name="LFOCKAEDFT"> F  </i>
   <i name="HFSCREEN">      0.00000000</i>
   <i name="HFSCREENC">      0.00000000</i>
   <i type="int" name="NBANDSGWLOW">     0</i>
  </separator>
  <separator name="vdW DFT" >
   <i type="logical" name="LUSE_VDW"> F  </i>
   <i name="Zab_VDW">     -0.84910000</i>
   <i name="PARAM1">      0.12340000</i>
   <i name="PARAM2">      1.00000000</i>
   <i name="PARAM3">      0.00000000</i>
  </separator>
  <separator name="model GW" >
   <i type="int" name="MODEL_GW">     0</i>
   <i name="MODEL_EPS0">     51.50901714</i>
   <i name="MODEL_ALPHA">      1.00000000</i>
  </separator>
  <separator name="linear response parameters" >
   <i type="logical" name="LEPSILON"> F  </i>
   <i type="logical" name="LRPA"> F  </i>
   <i type="logical" name="LNABLA"> F  </i>
   <i type="logical" name="LVEL"> F  </i>
   <i type="int" name="KINTER">     0</i>
   <i name="CSHIFT">      0.10000000</i>
   <i name="OMEGAMAX">     -1.00000000</i>
   <i name="DEG_THRESHOLD">      0.00200000</i>
   <i name="RTIME">     -0.10000000</i>
   <i name="WPLASMAI">      0.00000000</i>
   <v name="DFIELD">      0.00000000      0.00000000      0.00000000</v>
   <v name="WPLASMA">      0.00000000      0.00000000      0.00000000      0.00000000      0.00000000      0.00000000      0.00000000      0.00000000      0.00000000</v>
  </separator>
  <separator name="orbital magnetization" >
   <i type="logical" name="NUCIND"> F  </i>
   <v name="MAGPOS">      0.00000000      0.00000000      0.00000000</v>
   <i type="logical" name="LNICSALL"> T  </i>
   <i type="logical" name="ORBITALMAG"> F  </i>
   <i type="logical" name="LMAGBLOCH"> F  </i>
   <i type="logical" name="LCHIMAG"> F  </i>
   <i type="logical" name="LGAUGE"> T  </i>
   <i type="int" name="MAGATOM">     0</i>
   <v name="MAGDIPOL">      0.00000000      0.00000000      0.00000000</v>
   <v name="AVECCONST">      0.00000000      0.00000000      0.00000000</v>
  </separator>
  <separator name="response functions" >
   <i type="logical" name="LADDER"> F  </i>
   <i type="logical" name="LRPAFORCE"> F  </i>
   <i type="logical" name="LFXC"> F  </i>
   <i type="logical" name="LHARTREE"> T  </i>
   <i type="int" name="IBSE">     0</i>
   <v type="int" name="KPOINT">    -1     0     0     0</v>
   <i type="logical" name="LTCTE"> F  </i>
   <i type="logical" name="LTETE"> F  </i>
   <i type="logical" name="LTRIPLET"> F  </i>
   <i type="logical" name="LFXCEPS"> F  </i>
   <i type="logical" name="LFXHEG"> F  </i>
   <i type="int" name="NATURALO">     2</i>
   <i type="logical" name="L2ORDER"> F  </i>
   <i type="logical" name="LMP2LT"> F  </i>
   <i type="logical" name="LUSEW"> F  </i>
   <i name="ENCUTGW">     -2.00000000</i>
   <i name="ENCUTGWSOFT">     -2.00000000</i>
   <i name="ENCUTLF">     -1.00000000</i>
   <i type="int" name="LMAXMP2">    -1</i>
   <i name="SCISSOR">      0.00000000</i>
   <i type="int" name="NOMEGA">     0</i>
   <i type="int" name="NOMEGAR">     0</i>
   <i type="int" name="NBANDSGW">    -1</i>
   <i type="int" name="NBANDSO">    -1</i>
   <i type="int" name="NBANDSV">    -1</i>
   <i type="int" name="NELM">   200</i>
   <i type="int" name="NELMHF">     1</i>
   <i type="int" name="DIM">     3</i>
   <i type="int" name="ANTIRES">     0</i>
   <i name="OMEGAMAX">    -30.00000000</i>
   <i name="OMEGAMIN">    -30.00000000</i>
   <i name="OMEGATL">   -200.00000000</i>
   <i type="int" name="OMEGAGRID">   140</i>
   <i name="CSHIFT">     -0.10000000</i>
   <i type="logical" name="SELFENERGY"> F  </i>
   <i type="logical" name="LSPECTRAL"> F  </i>
   <i type="logical" name="LSPECTRALGW"> F  </i>
   <i type="logical" name="LSINGLES"> F  </i>
   <i type="logical" name="LFERMIGW"> F  </i>
   <i type="logical" name="ODDONLYGW"> F  </i>
   <i type="logical" name="EVENONLYGW"> F  </i>
   <i type="int" name="NKREDLFX">     1</i>
   <i type="int" name="NKREDLFY">     1</i>
   <i type="int" name="NKREDLFZ">     1</i>
   <i type="int" name="MAXMEM">  2800</i>
   <i type="int" name="TELESCOPE">     0</i>
   <i type="int" name="TAUPAR">     1</i>
   <i type="int" name="OMEGAPAR">    -1</i>
   <i name="LAMBDA">      1.00000000</i>
  </separator>
  <separator name="External order field" >
   <i name="OFIELD_KAPPA">      0.00000000</i>
   <v name="OFIELD_K">      0.00000000      0.00000000      0.00000000</v>
   <i name="OFIELD_Q6_NEAR">      0.00000000</i>
   <i name="OFIELD_Q6_FAR">      0.00000000</i>
   <i name="OFIELD_A">      0.00000000</i>
  </separator>
  <separator name="solvation model" >
   <i type="logical" name="LSOL"> F  </i>
  </separator>
 </parameters>
 <atominfo>
  <atoms>      96 </atoms>
  <types>       4 </types>
  <array name="atoms" >
   <dimension dim="1">ion</dimension>
   <field type="string">element</field>
   <field type="int">atomtype</field>
   <set>
    <rc><c>O </c><c>   1</c></rc>
    <rc><c>O </c><c>   1</c></rc>
    <rc><c>O </c><c>   1</c></rc>
    <rc><c>O </c><c>   1</c></rc>
    <rc><c>O </c><c>   1</c></rc>
    <rc><c>O </c><c>   1</c></rc>
    <rc><c>O </c><c>   1</c></rc>
    <rc><c>O </c><c>   1</c></rc>
    <rc><c>O </c><c>   1</c></rc>
    <rc><c>O </c><c>   1</c></rc>
    <rc><c>O </c><c>   1</c></rc>
    <rc><c>O </c><c>   1</c></rc>
    <rc><c>H </c><c>   2</c></rc>
    <rc><c>H </c><c>   2</c></rc>
    <rc><c>H </c><c>   2</c></rc>
    <rc><c>H </c><c>   2</c></rc>
    <rc><c>H </c><c>   2</c></rc>
    <rc><c>H </c><c>   2</c></rc>
    <rc><c>H </c><c>   2</c></rc>
    <rc><c>H </c><c>   2</c></rc>
    <rc><c>H </c><c>   2</c></rc>
    <rc><c>H </c><c>   2</c></rc>
    <rc><c>H </c><c>   2</c></rc>
    <rc><c>H </c><c>   2</c></rc>
    <rc><c>H </c><c>   2</c></rc>
    <rc><c>H </c><c>   2</c></rc>
    <rc><c>H </c><c>   2</c></rc>
    <rc><c>H </c><c>   2</c></rc>
    <rc><c>H </c><c>   2</c></rc>
    <rc><c>H </c><c>   2</c></rc>
    <rc><c>C </c><c>   3</c></rc>
    <rc><c>C </c><c>   3</c></rc>
    <rc><c>C </c><c>   3</c></rc>
    <rc><c>C </c><c>   3</c></rc>
    <rc><c>C </c><c>   3</c></rc>
    <rc><c>C </c><c>   3</c></rc>
    <rc><c>C </c><c>   3</c></rc>
    <rc><c>C </c><c>   3</c></rc>
    <rc><c>C </c><c>   3</c></rc>
    <rc><c>C </c><c>   3</c></rc>
    <rc><c>C </c><c>   3</c></rc>
    <rc><c>C </c><c>   3</c></rc>
    <rc><c>C </c><c>   3</c></rc>
    <rc><c>C </c><c>   3</c></rc>
    <rc><c>C </c><c>   3</c></rc>
    <rc><c>C </c><c>   3</c></rc>
    <rc><c>C </c><c>   3</c></rc>
    <rc><c>C </c><c>   3</c></rc>
    <rc><c>C </c><c>   3</c></rc>
    <rc><c>C </c><c>   3</c></rc>
    <rc><c>C </c><c>   3</c></rc>
    <rc><c>C </c><c>   3</c></rc>
    <rc><c>C </c><c>   3</c></rc>
    <rc><c>C </c><c>   3</c></rc>
    <rc><c>C </c><c>   3</c></rc>
    <rc><c>C </c><c>   3</c></rc>
    <rc><c>C </c><c>   3</c></rc>
    <rc><c>C </c><c>   3</c></rc>
    <rc><c>C </c><c>   3</c></rc>
    <rc><c>C </c><c>   3</c></rc>
    <rc><c>C </c><c>   3</c></rc>
    <rc><c>C </c><c>   3</c></rc>
    <rc><c>C </c><c>   3</c></rc>
    <rc><c>C </c><c>   3</c></rc>
    <rc><c>C </c><c>   3</c></rc>
    <rc><c>C </c><c>   3</c></rc>
    <rc><c>C </c><c>   3</c></rc>
    <rc><c>C </c><c>   3</c></rc>
    <rc><c>C </c><c>   3</c></rc>
    <rc><c>C </c><c>   3</c></rc>
    <rc><c>C </c><c>   3</c></rc>
    <rc><c>C </c><c>   3</c></rc>
    <rc><c>C </c><c>   3</c></rc>
    <rc><c>C </c><c>   3</c></rc>
    <rc><c>C </c><c>   3</c></rc>
    <rc><c>C </c><c>   3</c></rc>
    <rc><c>C </c><c>   3</c></rc>
    <rc><c>C </c><c>   3</c></rc>
    <rc><c>N </c><c>   4</c></rc>
    <rc><c>N </c><c>   4</c></rc>
    <rc><c>N </c><c>   4</c></rc>
    <rc><c>N </c><c>   4</c></rc>
    <rc><c>N </c><c>   4</c></rc>
    <rc><c>N </c><c>   4</c></rc>
    <rc><c>N </c><c>   4</c></rc>
    <rc><c>N </c><c>   4</c></rc>
    <rc><c>N </c><c>   4</c></rc>
    <rc><c>N </c><c>   4</c></rc>
    <rc><c>N </c><c>   4</c></rc>
    <rc><c>N </c><c>   4</c></rc>
    <rc><c>N </c><c>   4</c></rc>
    <rc><c>N </c><c>   4</c></rc>
    <rc><c>N </c><c>   4</c></rc>
    <rc><c>N </c><c>   4</c></rc>
    <rc><c>N </c><c>   4</c></rc>
    <rc><c>N </c><c>   4</c></rc>
   </set>
  </array>
  <array name="atomtypes" >
   <dimension dim="1">type</dimension>
   <field type="int">atomspertype</field>
   <field type="string">element</field>
   <field>mass</field>
   <field>valence</field>
   <field type="string">pseudopotential</field>
   <set>
    <rc><c>  12</c><c>O </c><c>     16.00000000</c><c>      6.00000000</c><c>  PAW_PBE O 08Apr2002                   </c></rc>
    <rc><c>  18</c><c>H </c><c>      1.00000000</c><c>      1.00000000</c><c>  PAW_PBE H 15Jun2001                   </c></rc>
    <rc><c>  48</c><c>C </c><c>     12.01100000</c><c>      4.00000000</c><c>  PAW_PBE C 08Apr2002                   </c></rc>
    <rc><c>  18</c><c>N </c><c>     14.00100000</c><c>      5.00000000</c><c>  PAW_PBE N 08Apr2002                   </c></rc>
   </set>
  </array>
 </atominfo>
 <structure name="initialpos" >
  <crystal>
   <varray name="basis" >
    <v>      21.82270768      -0.11477742       0.00000000 </v>
    <v>     -11.00039879      18.94057972       0.00000000 </v>
    <v>       0.00000000       0.00000000      20.00000000 </v>
   </varray>
   <i name="volume">   8241.44274168 </i>
   <varray name="rec_basis" >
    <v>       0.04596423       0.02669532       0.00000000 </v>
    <v>       0.00027854       0.05295846       0.00000000 </v>
    <v>       0.00000000       0.00000000       0.05000000 </v>
   </varray>
  </crystal>
  <varray name="positions" >
   <v>       0.95629035       0.75369323       0.60538468 </v>
   <v>       0.99861459       0.83609663       0.68386735 </v>
   <v>       0.32778294       0.86154167       0.33062121 </v>
   <v>       0.12731750       0.45659458       0.33090611 </v>
   <v>       0.18611278       0.56617959       0.29232037 </v>
   <v>       0.41724762       0.63369794       0.26404903 </v>
   <v>       0.53131299       0.67467347       0.28326420 </v>
   <v>       0.36418536       0.79255535       0.28722792 </v>
   <v>       0.96775101       0.18857923       0.61716366 </v>
   <v>       0.02145435       0.14978369       0.68400122 </v>
   <v>       0.81811334       0.04505002       0.58753810 </v>
   <v>       0.85292734       0.99718635       0.66512311 </v>
   <v>       0.25111679       0.96453419       0.52061939 </v>
   <v>       0.94629510       0.86567753       0.56272446 </v>
   <v>       0.14545660       0.06351264       0.57579358 </v>
   <v>       0.30919722       0.91230540       0.51752902 </v>
   <v>       0.10715713       0.71704998       0.53122480 </v>
   <v>       0.30257109       0.37396508       0.48451279 </v>
   <v>       0.27939649       0.54636370       0.41473366 </v>
   <v>       0.63771755       0.70460860       0.47034963 </v>
   <v>       0.46418414       0.72636365       0.39808826 </v>
   <v>       0.23880805       0.26156946       0.48042548 </v>
   <v>       0.75394644       0.76976144       0.47055386 </v>
   <v>       0.94913235       0.06281911       0.55302996 </v>
   <v>       0.28570833       0.72065928       0.43504201 </v>
   <v>       0.10548197       0.37095373       0.51793070 </v>
   <v>       0.64333394       0.90346948       0.49268505 </v>
   <v>       0.10586956       0.58899513       0.56986710 </v>
   <v>       0.42965129       0.48454784       0.50597484 </v>
   <v>       0.53475391       0.91638765       0.53321004 </v>
   <v>       0.19713325       0.93071285       0.53925191 </v>
   <v>       0.05087031       0.96017890       0.57338136 </v>
   <v>       0.08768718       0.03441051       0.57326243 </v>
   <v>       0.97675967       0.92317314       0.56687979 </v>
   <v>       0.09275005       0.92434872       0.57324856 </v>
   <v>       0.06905109       0.85339276       0.59103474 </v>
   <v>       0.20330757       0.81897049       0.52479314 </v>
   <v>       0.16809889       0.85724535       0.54881843 </v>
   <v>       0.19244871       0.70965789       0.48321228 </v>
   <v>       0.30548347       0.82087797       0.47450510 </v>
   <v>       0.27564824       0.85597240       0.50711968 </v>
   <v>       0.16258903       0.74509285       0.51526882 </v>
   <v>       0.29894931       0.46434115       0.44728252 </v>
   <v>       0.26994626       0.39823660       0.47824482 </v>
   <v>       0.54912226       0.81918163       0.44426786 </v>
   <v>       0.51677193       0.74938066       0.42072923 </v>
   <v>       0.54766840       0.70764534       0.43101420 </v>
   <v>       0.61455437       0.73775333       0.46127164 </v>
   <v>       0.64994704       0.80923225       0.48085150 </v>
   <v>       0.19004242       0.24350417       0.50912948 </v>
   <v>       0.77044019       0.81946346       0.49677202 </v>
   <v>       0.15939897       0.54786262       0.40655884 </v>
   <v>       0.50114298       0.63138568       0.41773962 </v>
   <v>       0.37424447       0.50918020       0.42761314 </v>
   <v>       0.45099892       0.60518948       0.36500074 </v>
   <v>       0.40296435       0.83941677       0.39434570 </v>
   <v>       0.72282054       0.84408790       0.50810542 </v>
   <v>       0.05126591       0.07141430       0.56726726 </v>
   <v>       0.97699337       0.03392571       0.56170508 </v>
   <v>       0.93952253       0.95963336       0.56123703 </v>
   <v>       0.26300186       0.74849423       0.46088908 </v>
   <v>       0.25642886       0.49483259       0.43916890 </v>
   <v>       0.18766135       0.46291034       0.46581905 </v>
   <v>       0.15911104       0.39709057       0.49734906 </v>
   <v>       0.19918390       0.36321934       0.50107778 </v>
   <v>       0.61598680       0.84908565       0.47435125 </v>
   <v>       0.15376415       0.50660240       0.46314877 </v>
   <v>       0.15777336       0.63215023       0.47270821 </v>
   <v>       0.38124641       0.85320602       0.45630676 </v>
   <v>       0.50392322       0.85153385       0.44150217 </v>
   <v>       0.09333111       0.14907396       0.55944902 </v>
   <v>       0.16553346       0.28992972       0.52643152 </v>
   <v>       0.07442643       0.19821480       0.58231842 </v>
   <v>       0.86235408       0.91794055       0.54818935 </v>
   <v>       0.81179432       0.93767748       0.56433507 </v>
   <v>       0.12782980       0.58050125       0.52408301 </v>
   <v>       0.43291649       0.52220579       0.46832574 </v>
   <v>       0.49412826       0.88815606       0.49513446 </v>
   <v>       0.15962666       0.96217137       0.54958138 </v>
   <v>       0.00210437       0.81041390       0.62990304 </v>
   <v>       0.10356751       0.82003760       0.57733746 </v>
   <v>       0.15402621       0.17496183       0.52413288 </v>
   <v>       0.83826625       0.85630948       0.51509796 </v>
   <v>       0.16667397       0.61086293       0.41256601 </v>
   <v>       0.15791775       0.52199872       0.33708459 </v>
   <v>       0.38785454       0.54891080       0.37258700 </v>
   <v>       0.46726476       0.64069662       0.29827754 </v>
   <v>       0.45995019       0.83404625       0.38903257 </v>
   <v>       0.36158792       0.82989126       0.33179629 </v>
   <v>       0.10729944       0.26552055       0.56510649 </v>
   <v>       0.01579911       0.17702271       0.63190543 </v>
   <v>       0.74541415       0.90387577       0.54363192 </v>
   <v>       0.82919183       0.99882364       0.60943414 </v>
   <v>       0.13053902       0.52120583       0.51961491 </v>
   <v>       0.49313339       0.58436353       0.46498273 </v>
   <v>       0.43175222       0.88459979       0.50320421 </v>
  </varray>
 </structure>
 <calculation>
  <scstep>
   <time name="dav">  301.90  304.31</time>
   <time name="total">  302.07  304.49</time>
   <energy>
    <i name="alphaZ">     76.52677683 </i>
    <i name="ewald">  44335.85478226 </i>
    <i name="hartreedc"> -58534.44889608 </i>
    <i name="XCdc">   1409.70144551 </i>
    <i name="pawpsdc">  35320.75477513 </i>
    <i name="pawaedc"> -35401.48214763 </i>
    <i name="eentropy">     -0.00000000 </i>
    <i name="bandstr">  -5148.80233440 </i>
    <i name="atom">  17237.78448350 </i>
    <i name="e_fr_energy">   -704.11111487 </i>
    <i name="e_wo_entrp">   -704.11111487 </i>
    <i name="e_0_energy">   -704.11111487 </i>
   </energy>
  </scstep>
  <scstep>
   <time name="dav">  343.96  346.69</time>
   <time name="total">  343.98  346.71</time>
   <energy>
    <i name="e_fr_energy">   -705.40011078 </i>
    <i name="e_wo_entrp">   -705.40011078 </i>
    <i name="e_0_energy">   -705.40011078 </i>
   </energy>
  </scstep>
  <scstep>
   <time name="dav">  390.79  393.87</time>
   <time name="total">  390.81  393.89</time>
   <energy>
    <i name="e_fr_energy">   -705.43428314 </i>
    <i name="e_wo_entrp">   -705.43428314 </i>
    <i name="e_0_energy">   -705.43428314 </i>
   </energy>
  </scstep>
  <scstep>
   <time name="dav">  341.16  343.79</time>
   <time name="total">  341.18  343.81</time>
   <energy>
    <i name="e_fr_energy">   -705.43486858 </i>
    <i name="e_wo_entrp">   -705.43486858 </i>
    <i name="e_0_energy">   -705.43486858 </i>
   </energy>
  </scstep>
  <scstep>
   <time name="dav">  347.70  350.37</time>
   <time name="total">  347.72  350.40</time>
   <energy>
    <i name="e_fr_energy">   -705.43489853 </i>
    <i name="e_wo_entrp">   -705.43489853 </i>
    <i name="e_0_energy">   -705.43489853 </i>
   </energy>
  </scstep>
  <scstep>
   <time name="dav">  262.58  264.59</time>
   <time name="total">  262.60  264.61</time>
   <energy>
    <i name="alphaZ">     76.52677683 </i>
    <i name="ewald">  44335.85478226 </i>
    <i name="hartreedc"> -58534.44889608 </i>
    <i name="XCdc">   1409.70144551 </i>
    <i name="pawpsdc">  35320.75477513 </i>
    <i name="pawaedc"> -35401.48214763 </i>
    <i name="eentropy">     -0.00000000 </i>
    <i name="bandstr">  -5150.12611864 </i>
    <i name="atom">  17237.78448350 </i>
    <i name="e_fr_energy">   -705.43489912 </i>
    <i name="e_wo_entrp">   -705.43489912 </i>
    <i name="e_0_energy">   -705.43489912 </i>
   </energy>
  </scstep>
  <structure>
   <crystal>
    <varray name="basis" >
     <v>      21.82270768      -0.11477742       0.00000000 </v>
     <v>     -11.00039879      18.94057972       0.00000000 </v>
     <v>       0.00000000       0.00000000      20.00000000 </v>
    </varray>
    <i name="volume">   8241.44274168 </i>
    <varray name="rec_basis" >
     <v>       0.04596423       0.02669532       0.00000000 </v>
     <v>       0.00027854       0.05295846       0.00000000 </v>
     <v>       0.00000000       0.00000000       0.05000000 </v>
    </varray>
   </crystal>
   <varray name="positions" >
    <v>       0.95629035       0.75369323       0.60538468 </v>
    <v>       0.99861459       0.83609663       0.68386735 </v>
    <v>       0.32778294       0.86154167       0.33062121 </v>
    <v>       0.12731750       0.45659458       0.33090611 </v>
    <v>       0.18611278       0.56617959       0.29232037 </v>
    <v>       0.41724762       0.63369794       0.26404903 </v>
    <v>       0.53131299       0.67467347       0.28326420 </v>
    <v>       0.36418536       0.79255535       0.28722792 </v>
    <v>       0.96775101       0.18857923       0.61716366 </v>
    <v>       0.02145435       0.14978369       0.68400122 </v>
    <v>       0.81811334       0.04505002       0.58753810 </v>
    <v>       0.85292734       0.99718635       0.66512311 </v>
    <v>       0.25111679       0.96453419       0.52061939 </v>
    <v>       0.94629510       0.86567753       0.56272446 </v>
    <v>       0.14545660       0.06351264       0.57579358 </v>
    <v>       0.30919722       0.91230540       0.51752902 </v>
    <v>       0.10715713       0.71704998       0.53122480 </v>
    <v>       0.30257109       0.37396508       0.48451279 </v>
    <v>       0.27939649       0.54636370       0.41473366 </v>
    <v>       0.63771755       0.70460860       0.47034963 </v>
    <v>       0.46418414       0.72636365       0.39808826 </v>
    <v>       0.23880805       0.26156946       0.48042548 </v>
    <v>       0.75394644       0.76976144       0.47055386 </v>
    <v>       0.94913235       0.06281911       0.55302996 </v>
    <v>       0.28570833       0.72065928       0.43504201 </v>
    <v>       0.10548197       0.37095373       0.51793070 </v>
    <v>       0.64333394       0.90346948       0.49268505 </v>
    <v>       0.10586956       0.58899513       0.56986710 </v>
    <v>       0.42965129       0.48454784       0.50597484 </v>
    <v>       0.53475391       0.91638765       0.53321004 </v>
    <v>       0.19713325       0.93071285       0.53925191 </v>
    <v>       0.05087031       0.96017890       0.57338136 </v>
    <v>       0.08768718       0.03441051       0.57326243 </v>
    <v>       0.97675967       0.92317314       0.56687979 </v>
    <v>       0.09275005       0.92434872       0.57324856 </v>
    <v>       0.06905109       0.85339276       0.59103474 </v>
    <v>       0.20330757       0.81897049       0.52479314 </v>
    <v>       0.16809889       0.85724535       0.54881843 </v>
    <v>       0.19244871       0.70965789       0.48321228 </v>
    <v>       0.30548347       0.82087797       0.47450510 </v>
    <v>       0.27564824       0.85597240       0.50711968 </v>
    <v>       0.16258903       0.74509285       0.51526882 </v>
    <v>       0.29894931       0.46434115       0.44728252 </v>
    <v>       0.26994626       0.39823660       0.47824482 </v>
    <v>       0.54912226       0.81918163       0.44426786 </v>
    <v>       0.51677193       0.74938066       0.42072923 </v>
    <v>       0.54766840       0.70764534       0.43101420 </v>
    <v>       0.61455437       0.73775333       0.46127164 </v>
    <v>       0.64994704       0.80923225       0.48085150 </v>
    <v>       0.19004242       0.24350417       0.50912948 </v>
    <v>       0.77044019       0.81946346       0.49677202 </v>
    <v>       0.15939897       0.54786262       0.40655884 </v>
    <v>       0.50114298       0.63138568       0.41773962 </v>
    <v>       0.37424447       0.50918020       0.42761314 </v>
    <v>       0.45099892       0.60518948       0.36500074 </v>
    <v>       0.40296435       0.83941677       0.39434570 </v>
    <v>       0.72282054       0.84408790       0.50810542 </v>
    <v>       0.05126591       0.07141430       0.56726726 </v>
    <v>       0.97699337       0.03392571       0.56170508 </v>
    <v>       0.93952253       0.95963336       0.56123703 </v>
    <v>       0.26300186       0.74849423       0.46088908 </v>
    <v>       0.25642886       0.49483259       0.43916890 </v>
    <v>       0.18766135       0.46291034       0.46581905 </v>
    <v>       0.15911104       0.39709057       0.49734906 </v>
    <v>       0.19918390       0.36321934       0.50107778 </v>
    <v>       0.61598680       0.84908565       0.47435125 </v>
    <v>       0.15376415       0.50660240       0.46314877 </v>
    <v>       0.15777336       0.63215023       0.47270821 </v>
    <v>       0.38124641       0.85320602       0.45630676 </v>
    <v>       0.50392322       0.85153385       0.44150217 </v>
    <v>       0.09333111       0.14907396       0.55944902 </v>
    <v>       0.16553346       0.28992972       0.52643152 </v>
    <v>       0.07442643       0.19821480       0.58231842 </v>
    <v>       0.86235408       0.91794055       0.54818935 </v>
    <v>       0.81179432       0.93767748       0.56433507 </v>
    <v>       0.12782980       0.58050125       0.52408301 </v>
    <v>       0.43291649       0.52220579       0.46832574 </v>
    <v>       0.49412826       0.88815606       0.49513446 </v>
    <v>       0.15962666       0.96217137       0.54958138 </v>
    <v>       0.00210437       0.81041390       0.62990304 </v>
    <v>       0.10356751       0.82003760       0.57733746 </v>
    <v>       0.15402621       0.17496183       0.52413288 </v>
    <v>       0.83826625       0.85630948       0.51509796 </v>
    <v>       0.16667397       0.61086293       0.41256601 </v>
    <v>       0.15791775       0.52199872       0.33708459 </v>
    <v>       0.38785454       0.54891080       0.37258700 </v>
    <v>       0.46726476       0.64069662       0.29827754 </v>
    <v>       0.45995019       0.83404625       0.38903257 </v>
    <v>       0.36158792       0.82989126       0.33179629 </v>
    <v>       0.10729944       0.26552055       0.56510649 </v>
    <v>       0.01579911       0.17702271       0.63190543 </v>
    <v>       0.74541415       0.90387577       0.54363192 </v>
    <v>       0.82919183       0.99882364       0.60943414 </v>
    <v>       0.13053902       0.52120583       0.51961491 </v>
    <v>       0.49313339       0.58436353       0.46498273 </v>
    <v>       0.43175222       0.88459979       0.50320421 </v>
   </varray>
  </structure>
  <varray name="forces" >
   <v>      -0.00040317      -0.00122052       0.00169815 </v>
   <v>       0.00122477       0.00303816      -0.00146189 </v>
   <v>      -0.00217779       0.00196029      -0.00229526 </v>
   <v>      -0.00140558       0.00097048      -0.00535850 </v>
   <v>       0.00459505       0.00698011      -0.00299838 </v>
   <v>      -0.00200860      -0.00204963       0.00126152 </v>
   <v>      -0.00197858      -0.00201195       0.00128161 </v>
   <v>       0.00019210      -0.00262977      -0.00415522 </v>
   <v>      -0.00384162      -0.00072849       0.00003696 </v>
   <v>       0.00133024       0.00063985       0.00712595 </v>
   <v>       0.00005096       0.00258795      -0.00045180 </v>
   <v>      -0.00276363      -0.00353717       0.00070775 </v>
   <v>       0.00040716       0.00069923       0.00656747 </v>
   <v>       0.00097579      -0.00017290       0.00235927 </v>
   <v>       0.00013623       0.00044297       0.00144524 </v>
   <v>       0.00109328      -0.00135676      -0.00149976 </v>
   <v>       0.00006945       0.00039434      -0.00009968 </v>
   <v>       0.00081692      -0.00189332       0.00071586 </v>
   <v>       0.00051279      -0.00186458      -0.00048456 </v>
   <v>      -0.00209559       0.00047564      -0.00021688 </v>
   <v>      -0.00042418       0.00016877       0.00052031 </v>
   <v>       0.00218973      -0.00109035       0.00251230 </v>
   <v>      -0.00094993       0.00274391       0.00037741 </v>
   <v>      -0.00099048      -0.00086054      -0.00022644 </v>
   <v>      -0.00055441      -0.00044425      -0.00083747 </v>
   <v>       0.00066073       0.00003756      -0.00134562 </v>
   <v>       0.00055060       0.00056872      -0.00092597 </v>
   <v>       0.00106388      -0.00041690      -0.00484830 </v>
   <v>      -0.00174475      -0.00020684       0.00177496 </v>
   <v>      -0.00044187      -0.00139941       0.00124256 </v>
   <v>      -0.00309852       0.00262827       0.00121823 </v>
   <v>      -0.00358638       0.00129238       0.00203602 </v>
   <v>      -0.00160085      -0.00124785       0.00308618 </v>
   <v>       0.00194905       0.00074100       0.00095164 </v>
   <v>      -0.00042556       0.00196651       0.00035056 </v>
   <v>       0.00074289      -0.00180419       0.00070826 </v>
   <v>       0.00261632      -0.00170151       0.00053153 </v>
   <v>      -0.00149440       0.00115636       0.00170739 </v>
   <v>      -0.00071971      -0.00139839      -0.00134145 </v>
   <v>       0.00160854      -0.00146900      -0.00199366 </v>
   <v>      -0.00186170       0.00112629      -0.00172305 </v>
   <v>      -0.00043182       0.00402239      -0.00173120 </v>
   <v>       0.00003839       0.00036627      -0.00154024 </v>
   <v>       0.00112624       0.00138483       0.00140328 </v>
   <v>      -0.00001300      -0.00065570       0.00024706 </v>
   <v>      -0.00085868      -0.00163097      -0.00162724 </v>
   <v>      -0.00238501      -0.00005775       0.00022926 </v>
   <v>       0.00311129      -0.00074653       0.00156889 </v>
   <v>       0.00129776      -0.00016878       0.00045251 </v>
   <v>      -0.00028658      -0.00336628       0.00511527 </v>
   <v>      -0.00166698      -0.00285778      -0.00263416 </v>
   <v>      -0.00114617       0.00285692      -0.00147655 </v>
   <v>      -0.00257722      -0.00292324      -0.00130857 </v>
   <v>      -0.00075402      -0.00259831       0.00305464 </v>
   <v>       0.00322834       0.00272558       0.00231730 </v>
   <v>       0.00424348       0.00022106      -0.00116930 </v>
   <v>       0.00107535      -0.00379642      -0.00095273 </v>
   <v>      -0.00000844      -0.00056684       0.00324247 </v>
   <v>       0.00204373       0.00030979       0.00242113 </v>
   <v>       0.00096911      -0.00073253       0.00142977 </v>
   <v>       0.00089864       0.00008653      -0.00102444 </v>
   <v>       0.00444627      -0.00061219      -0.00316138 </v>
   <v>      -0.00442947       0.00075666      -0.00151408 </v>
   <v>      -0.00192857      -0.00036403       0.00066859 </v>
   <v>      -0.00104171      -0.00351080       0.00003578 </v>
   <v>      -0.00016980       0.00141940       0.00060832 </v>
   <v>       0.00014626      -0.00041482      -0.00191927 </v>
   <v>       0.00267088      -0.00091308      -0.00482780 </v>
   <v>       0.00181396       0.00043525      -0.00001682 </v>
   <v>       0.00079632      -0.00219601      -0.00313800 </v>
   <v>       0.00242258      -0.00047322       0.00027739 </v>
   <v>      -0.00193055      -0.00162129       0.00066351 </v>
   <v>      -0.00144786       0.00124735       0.00152686 </v>
   <v>       0.00015418       0.00136169       0.00072527 </v>
   <v>      -0.00031568      -0.00058983      -0.00125172 </v>
   <v>      -0.00470697      -0.00147260      -0.00047428 </v>
   <v>      -0.00128398      -0.00099419       0.00177751 </v>
   <v>      -0.00013765       0.00045259      -0.00024934 </v>
   <v>       0.00071722       0.00290393       0.00300153 </v>
   <v>       0.00110143      -0.00100044       0.00679270 </v>
   <v>       0.00368576      -0.00350174      -0.00166261 </v>
   <v>       0.00099973       0.00071911       0.00018613 </v>
   <v>       0.00123497      -0.00011842      -0.00036248 </v>
   <v>       0.00282927      -0.00238726       0.00090180 </v>
   <v>      -0.00247336       0.00127578      -0.00175178 </v>
   <v>      -0.00077297      -0.00124083      -0.00340389 </v>
   <v>       0.00297206       0.00279970      -0.00193985 </v>
   <v>      -0.00281685       0.00351787      -0.00060553 </v>
   <v>      -0.00314288       0.00612690       0.00124086 </v>
   <v>       0.00219598       0.00058117      -0.00293429 </v>
   <v>       0.00124326       0.00280852      -0.00475915 </v>
   <v>       0.00063977       0.00109778       0.00193909 </v>
   <v>       0.00096599      -0.00359203       0.00218260 </v>
   <v>       0.00109567       0.00211162      -0.00172306 </v>
   <v>      -0.00046943       0.00212670      -0.00074418 </v>
   <v>      -0.00118743       0.00027401      -0.00205883 </v>
  </varray>
  <varray name="stress" >
   <v>      -0.01459986      -0.00059654      -0.02136614 </v>
   <v>      -0.00059654      -0.01228959       0.00732884 </v>
   <v>      -0.02136614       0.00732883      -0.23319046 </v>
  </varray>
  <energy>
   <i name="e_fr_energy">   -707.80065936 </i>
   <i name="e_wo_entrp">   -707.80065936 </i>
   <i name="e_0_energy">     -0.00000000 </i>
  </energy>
  <time name="totalsc"> 2241.82 2259.81</time>
  <eigenvalues>
   <array>
    <dimension dim="1">band</dimension>
    <dimension dim="2">kpoint</dimension>
    <dimension dim="3">spin</dimension>
    <field>eigene</field>
    <field>occ</field>
    <set>
     <set comment="spin 1">
      <set comment="kpoint 1">
       <r>  -30.7890    1.0000 </r>
       <r>  -30.6990    1.0000 </r>
       <r>  -30.6354    1.0000 </r>
       <r>  -30.5287    1.0000 </r>
       <r>  -30.5259    1.0000 </r>
       <r>  -30.4646    1.0000 </r>
       <r>  -26.4544    1.0000 </r>
       <r>  -26.3735    1.0000 </r>
       <r>  -26.3122    1.0000 </r>
       <r>  -26.1903    1.0000 </r>
       <r>  -26.1889    1.0000 </r>
       <r>  -26.1241    1.0000 </r>
       <r>  -25.3878    1.0000 </r>
       <r>  -25.3467    1.0000 </r>
       <r>  -25.2907    1.0000 </r>
       <r>  -25.2134    1.0000 </r>
       <r>  -25.2005    1.0000 </r>
       <r>  -25.1819    1.0000 </r>
       <r>  -23.4054    1.0000 </r>
       <r>  -23.3619    1.0000 </r>
       <r>  -23.3204    1.0000 </r>
       <r>  -23.2980    1.0000 </r>
       <r>  -23.2753    1.0000 </r>
       <r>  -23.2589    1.0000 </r>
       <r>  -22.1295    1.0000 </r>
       <r>  -22.1074    1.0000 </r>
       <r>  -22.0496    1.0000 </r>
       <r>  -21.9108    1.0000 </r>
       <r>  -21.0171    1.0000 </r>
       <r>  -21.0087    1.0000 </r>
       <r>  -20.9796    1.0000 </r>
       <r>  -20.5776    1.0000 </r>
       <r>  -20.5101    1.0000 </r>
       <r>  -20.4973    1.0000 </r>
       <r>  -19.7207    1.0000 </r>
       <r>  -19.7046    1.0000 </r>
       <r>  -19.3377    1.0000 </r>
       <r>  -19.2973    1.0000 </r>
       <r>  -19.2575    1.0000 </r>
       <r>  -18.9336    1.0000 </r>
       <r>  -18.8357    1.0000 </r>
       <r>  -18.7928    1.0000 </r>
       <r>  -18.1338    1.0000 </r>
       <r>  -18.1035    1.0000 </r>
       <r>  -18.0419    1.0000 </r>
       <r>  -17.9892    1.0000 </r>
       <r>  -17.8654    1.0000 </r>
       <r>  -17.7509    1.0000 </r>
       <r>  -17.1466    1.0000 </r>
       <r>  -17.0532    1.0000 </r>
       <r>  -17.0501    1.0000 </r>
       <r>  -16.9698    1.0000 </r>
       <r>  -16.9040    1.0000 </r>
       <r>  -16.8175    1.0000 </r>
       <r>  -16.1624    1.0000 </r>
       <r>  -15.8723    1.0000 </r>
       <r>  -15.7876    1.0000 </r>
       <r>  -15.7169    1.0000 </r>
       <r>  -15.6228    1.0000 </r>
       <r>  -15.5408    1.0000 </r>
       <r>  -15.4008    1.0000 </r>
       <r>  -15.2397    1.0000 </r>
       <r>  -15.1111    1.0000 </r>
       <r>  -14.9084    1.0000 </r>
       <r>  -14.8882    1.0000 </r>
       <r>  -14.8117    1.0000 </r>
       <r>  -14.6743    1.0000 </r>
       <r>  -14.5899    1.0000 </r>
       <r>  -13.9400    1.0000 </r>
       <r>  -13.8536    1.0000 </r>
       <r>  -13.7807    1.0000 </r>
       <r>  -13.7485    1.0000 </r>
       <r>  -13.7088    1.0000 </r>
       <r>  -13.6699    1.0000 </r>
       <r>  -13.6327    1.0000 </r>
       <r>  -13.5420    1.0000 </r>
       <r>  -13.5373    1.0000 </r>
       <r>  -13.4876    1.0000 </r>
       <r>  -13.2498    1.0000 </r>
       <r>  -13.2417    1.0000 </r>
       <r>  -13.1454    1.0000 </r>
       <r>  -13.0677    1.0000 </r>
       <r>  -13.0333    1.0000 </r>
       <r>  -13.0237    1.0000 </r>
       <r>  -12.7994    1.0000 </r>
       <r>  -12.7791    1.0000 </r>
       <r>  -12.7514    1.0000 </r>
       <r>  -12.7157    1.0000 </r>
       <r>  -12.7082    1.0000 </r>
       <r>  -12.5650    1.0000 </r>
       <r>  -12.4296    1.0000 </r>
       <r>  -12.3745    1.0000 </r>
       <r>  -12.3417    1.0000 </r>
       <r>  -12.2662    1.0000 </r>
       <r>  -12.2413    1.0000 </r>
       <r>  -12.1480    1.0000 </r>
       <r>  -12.0836    1.0000 </r>
       <r>  -12.0449    1.0000 </r>
       <r>  -11.9873    1.0000 </r>
       <r>  -11.9792    1.0000 </r>
       <r>  -11.9506    1.0000 </r>
       <r>  -11.9204    1.0000 </r>
       <r>  -11.7659    1.0000 </r>
       <r>  -11.7554    1.0000 </r>
       <r>  -11.6750    1.0000 </r>
       <r>  -11.6433    1.0000 </r>
       <r>  -11.6258    1.0000 </r>
       <r>  -11.5113    1.0000 </r>
       <r>  -11.4909    1.0000 </r>
       <r>  -11.4428    1.0000 </r>
       <r>  -11.2333    1.0000 </r>
       <r>  -11.1558    1.0000 </r>
       <r>  -11.0430    1.0000 </r>
       <r>  -10.9761    1.0000 </r>
       <r>  -10.9287    1.0000 </r>
       <r>  -10.8859    1.0000 </r>
       <r>  -10.8333    1.0000 </r>
       <r>  -10.8094    1.0000 </r>
       <r>  -10.5973    1.0000 </r>
       <r>  -10.2895    1.0000 </r>
       <r>  -10.2762    1.0000 </r>
       <r>  -10.2206    1.0000 </r>
       <r>  -10.1601    1.0000 </r>
       <r>  -10.0961    1.0000 </r>
       <r>   -9.8820    1.0000 </r>
       <r>   -9.8400    1.0000 </r>
       <r>   -9.8079    1.0000 </r>
       <r>   -9.4133    1.0000 </r>
       <r>   -9.2158    1.0000 </r>
       <r>   -9.1983    1.0000 </r>
       <r>   -9.1750    1.0000 </r>
       <r>   -9.1238    1.0000 </r>
       <r>   -9.0386    1.0000 </r>
       <r>   -9.0148    1.0000 </r>
       <r>   -8.9544    1.0000 </r>
       <r>   -8.9107    1.0000 </r>
       <r>   -8.8850    1.0000 </r>
       <r>   -8.8239    1.0000 </r>
       <r>   -8.6944    1.0000 </r>
       <r>   -8.6275    1.0000 </r>
       <r>   -8.6200    1.0000 </r>
       <r>   -8.5891    1.0000 </r>
       <r>   -8.2362    1.0000 </r>
       <r>   -8.2104    1.0000 </r>
       <r>   -8.0506    1.0000 </r>
       <r>   -7.9023    1.0000 </r>
       <r>   -7.8528    1.0000 </r>
       <r>   -7.8348    1.0000 </r>
       <r>   -7.7374    1.0000 </r>
       <r>   -7.6744    1.0000 </r>
       <r>   -7.6387    1.0000 </r>
       <r>   -7.5540    1.0000 </r>
       <r>   -7.4870    1.0000 </r>
       <r>   -7.4356    1.0000 </r>
       <r>   -7.4187    1.0000 </r>
       <r>   -7.3965    1.0000 </r>
       <r>   -7.3499    1.0000 </r>
       <r>   -7.3209    1.0000 </r>
       <r>   -7.2788    1.0000 </r>
       <r>   -7.2438    1.0000 </r>
       <r>   -7.2308    1.0000 </r>
       <r>   -7.2080    1.0000 </r>
       <r>   -7.1245    1.0000 </r>
       <r>   -7.0912    1.0000 </r>
       <r>   -7.0450    1.0000 </r>
       <r>   -7.0115    1.0000 </r>
       <r>   -6.9104    1.0000 </r>
       <r>   -6.8621    1.0000 </r>
       <r>   -6.7321    1.0000 </r>
       <r>   -6.6554    1.0000 </r>
       <r>   -6.5726    1.0000 </r>
       <r>   -6.5132    1.0000 </r>
       <r>   -6.4868    1.0000 </r>
       <r>   -6.4437    1.0000 </r>
       <r>   -6.3979    1.0000 </r>
       <r>   -6.3537    1.0000 </r>
       <r>   -6.3172    1.0000 </r>
       <r>   -6.2397    1.0000 </r>
       <r>   -6.2213    1.0000 </r>
       <r>   -6.1903    1.0000 </r>
       <r>   -6.1731    1.0000 </r>
       <r>   -6.1137    1.0000 </r>
       <r>   -6.0885    1.0000 </r>
       <r>   -6.0470    1.0000 </r>
       <r>   -5.8977    1.0000 </r>
       <r>   -5.8861    1.0000 </r>
       <r>   -3.4327    0.0000 </r>
       <r>   -3.3980    0.0000 </r>
       <r>   -3.3545    0.0000 </r>
       <r>   -3.3146    0.0000 </r>
       <r>   -3.2738    0.0000 </r>
       <r>   -3.1694    0.0000 </r>
       <r>   -3.1166    0.0000 </r>
       <r>   -3.0928    0.0000 </r>
       <r>   -3.0671    0.0000 </r>
       <r>   -2.9801    0.0000 </r>
       <r>   -2.9070    0.0000 </r>
       <r>   -2.7677    0.0000 </r>
       <r>   -2.3076    0.0000 </r>
       <r>   -2.2310    0.0000 </r>
       <r>   -2.1739    0.0000 </r>
       <r>   -1.9442    0.0000 </r>
       <r>   -1.9025    0.0000 </r>
       <r>   -1.7676    0.0000 </r>
       <r>   -1.6814    0.0000 </r>
       <r>   -1.6639    0.0000 </r>
       <r>   -1.6273    0.0000 </r>
       <r>   -0.9827    0.0000 </r>
       <r>   -0.9634    0.0000 </r>
       <r>   -0.8688    0.0000 </r>
       <r>   -0.4308    0.0000 </r>
       <r>   -0.4041    0.0000 </r>
       <r>   -0.3526    0.0000 </r>
       <r>   -0.1281    0.0000 </r>
       <r>   -0.0152    0.0000 </r>
       <r>    0.0347    0.0000 </r>
       <r>    0.1858    0.0000 </r>
       <r>    0.2616    0.0000 </r>
       <r>    0.3576    0.0000 </r>
       <r>    0.4721    0.0000 </r>
       <r>    0.5753    0.0000 </r>
       <r>    0.6240    0.0000 </r>
       <r>    0.6521    0.0000 </r>
       <r>    0.6995    0.0000 </r>
       <r>    0.7279    0.0000 </r>
       <r>    0.7425    0.0000 </r>
       <r>    0.7773    0.0000 </r>
       <r>    0.8610    0.0000 </r>
       <r>    0.8990    0.0000 </r>
       <r>    0.9307    0.0000 </r>
       <r>    0.9699    0.0000 </r>
       <r>    1.0024    0.0000 </r>
       <r>    1.0451    0.0000 </r>
       <r>    1.1023    0.0000 </r>
       <r>    1.1062    0.0000 </r>
       <r>    1.1270    0.0000 </r>
       <r>    1.1616    0.0000 </r>
       <r>    1.1900    0.0000 </r>
       <r>    1.2301    0.0000 </r>
       <r>    1.3052    0.0000 </r>
      </set>
      <set comment="kpoint 2">
       <r>  -30.7890    1.0000 </r>
       <r>  -30.6990    1.0000 </r>
       <r>  -30.6354    1.0000 </r>
       <r>  -30.5287    1.0000 </r>
       <r>  -30.5259    1.0000 </r>
       <r>  -30.4646    1.0000 </r>
       <r>  -26.4544    1.0000 </r>
       <r>  -26.3735    1.0000 </r>
       <r>  -26.3122    1.0000 </r>
       <r>  -26.1903    1.0000 </r>
       <r>  -26.1889    1.0000 </r>
       <r>  -26.1241    1.0000 </r>
       <r>  -25.3878    1.0000 </r>
       <r>  -25.3467    1.0000 </r>
       <r>  -25.2907    1.0000 </r>
       <r>  -25.2134    1.0000 </r>
       <r>  -25.2005    1.0000 </r>
       <r>  -25.1819    1.0000 </r>
       <r>  -23.4054    1.0000 </r>
       <r>  -23.3620    1.0000 </r>
       <r>  -23.3203    1.0000 </r>
       <r>  -23.2980    1.0000 </r>
       <r>  -23.2753    1.0000 </r>
       <r>  -23.2589    1.0000 </r>
       <r>  -22.1295    1.0000 </r>
       <r>  -22.1075    1.0000 </r>
       <r>  -22.0495    1.0000 </r>
       <r>  -21.9108    1.0000 </r>
       <r>  -21.0168    1.0000 </r>
       <r>  -21.0087    1.0000 </r>
       <r>  -20.9796    1.0000 </r>
       <r>  -20.5815    1.0000 </r>
       <r>  -20.5071    1.0000 </r>
       <r>  -20.4964    1.0000 </r>
       <r>  -19.7207    1.0000 </r>
       <r>  -19.7046    1.0000 </r>
       <r>  -19.3400    1.0000 </r>
       <r>  -19.3001    1.0000 </r>
       <r>  -19.2522    1.0000 </r>
       <r>  -18.9336    1.0000 </r>
       <r>  -18.8361    1.0000 </r>
       <r>  -18.7928    1.0000 </r>
       <r>  -18.1338    1.0000 </r>
       <r>  -18.1035    1.0000 </r>
       <r>  -18.0419    1.0000 </r>
       <r>  -17.9893    1.0000 </r>
       <r>  -17.8656    1.0000 </r>
       <r>  -17.7508    1.0000 </r>
       <r>  -17.1464    1.0000 </r>
       <r>  -17.0533    1.0000 </r>
       <r>  -17.0500    1.0000 </r>
       <r>  -16.9698    1.0000 </r>
       <r>  -16.9044    1.0000 </r>
       <r>  -16.8173    1.0000 </r>
       <r>  -16.1624    1.0000 </r>
       <r>  -15.8721    1.0000 </r>
       <r>  -15.7877    1.0000 </r>
       <r>  -15.7170    1.0000 </r>
       <r>  -15.6229    1.0000 </r>
       <r>  -15.5407    1.0000 </r>
       <r>  -15.4005    1.0000 </r>
       <r>  -15.2395    1.0000 </r>
       <r>  -15.1112    1.0000 </r>
       <r>  -14.9092    1.0000 </r>
       <r>  -14.8881    1.0000 </r>
       <r>  -14.8117    1.0000 </r>
       <r>  -14.6739    1.0000 </r>
       <r>  -14.5898    1.0000 </r>
       <r>  -13.9403    1.0000 </r>
       <r>  -13.8536    1.0000 </r>
       <r>  -13.7808    1.0000 </r>
       <r>  -13.7484    1.0000 </r>
       <r>  -13.7090    1.0000 </r>
       <r>  -13.6695    1.0000 </r>
       <r>  -13.6326    1.0000 </r>
       <r>  -13.5420    1.0000 </r>
       <r>  -13.5373    1.0000 </r>
       <r>  -13.4875    1.0000 </r>
       <r>  -13.2498    1.0000 </r>
       <r>  -13.2417    1.0000 </r>
       <r>  -13.1454    1.0000 </r>
       <r>  -13.0678    1.0000 </r>
       <r>  -13.0334    1.0000 </r>
       <r>  -13.0237    1.0000 </r>
       <r>  -12.7994    1.0000 </r>
       <r>  -12.7790    1.0000 </r>
       <r>  -12.7514    1.0000 </r>
       <r>  -12.7158    1.0000 </r>
       <r>  -12.7081    1.0000 </r>
       <r>  -12.5650    1.0000 </r>
       <r>  -12.4296    1.0000 </r>
       <r>  -12.3745    1.0000 </r>
       <r>  -12.3417    1.0000 </r>
       <r>  -12.2665    1.0000 </r>
       <r>  -12.2413    1.0000 </r>
       <r>  -12.1480    1.0000 </r>
       <r>  -12.0834    1.0000 </r>
       <r>  -12.0449    1.0000 </r>
       <r>  -11.9874    1.0000 </r>
       <r>  -11.9792    1.0000 </r>
       <r>  -11.9506    1.0000 </r>
       <r>  -11.9205    1.0000 </r>
       <r>  -11.7660    1.0000 </r>
       <r>  -11.7554    1.0000 </r>
       <r>  -11.6752    1.0000 </r>
       <r>  -11.6435    1.0000 </r>
       <r>  -11.6258    1.0000 </r>
       <r>  -11.5117    1.0000 </r>
       <r>  -11.4908    1.0000 </r>
       <r>  -11.4420    1.0000 </r>
       <r>  -11.2330    1.0000 </r>
       <r>  -11.1557    1.0000 </r>
       <r>  -11.0430    1.0000 </r>
       <r>  -10.9764    1.0000 </r>
       <r>  -10.9292    1.0000 </r>
       <r>  -10.8864    1.0000 </r>
       <r>  -10.8331    1.0000 </r>
       <r>  -10.8094    1.0000 </r>
       <r>  -10.5966    1.0000 </r>
       <r>  -10.2902    1.0000 </r>
       <r>  -10.2759    1.0000 </r>
       <r>  -10.2205    1.0000 </r>
       <r>  -10.1601    1.0000 </r>
       <r>  -10.0961    1.0000 </r>
       <r>   -9.8835    1.0000 </r>
       <r>   -9.8388    1.0000 </r>
       <r>   -9.8073    1.0000 </r>
       <r>   -9.4140    1.0000 </r>
       <r>   -9.2159    1.0000 </r>
       <r>   -9.1986    1.0000 </r>
       <r>   -9.1745    1.0000 </r>
       <r>   -9.1237    1.0000 </r>
       <r>   -9.0387    1.0000 </r>
       <r>   -9.0148    1.0000 </r>
       <r>   -8.9544    1.0000 </r>
       <r>   -8.9107    1.0000 </r>
       <r>   -8.8849    1.0000 </r>
       <r>   -8.8238    1.0000 </r>
       <r>   -8.6945    1.0000 </r>
       <r>   -8.6276    1.0000 </r>
       <r>   -8.6199    1.0000 </r>
       <r>   -8.5890    1.0000 </r>
       <r>   -8.2360    1.0000 </r>
       <r>   -8.2104    1.0000 </r>
       <r>   -8.0508    1.0000 </r>
       <r>   -7.9031    1.0000 </r>
       <r>   -7.8524    1.0000 </r>
       <r>   -7.8344    1.0000 </r>
       <r>   -7.7374    1.0000 </r>
       <r>   -7.6744    1.0000 </r>
       <r>   -7.6386    1.0000 </r>
       <r>   -7.5542    1.0000 </r>
       <r>   -7.4871    1.0000 </r>
       <r>   -7.4367    1.0000 </r>
       <r>   -7.4174    1.0000 </r>
       <r>   -7.3962    1.0000 </r>
       <r>   -7.3499    1.0000 </r>
       <r>   -7.3208    1.0000 </r>
       <r>   -7.2788    1.0000 </r>
       <r>   -7.2438    1.0000 </r>
       <r>   -7.2308    1.0000 </r>
       <r>   -7.2080    1.0000 </r>
       <r>   -7.1245    1.0000 </r>
       <r>   -7.0912    1.0000 </r>
       <r>   -7.0450    1.0000 </r>
       <r>   -7.0115    1.0000 </r>
       <r>   -6.9104    1.0000 </r>
       <r>   -6.8621    1.0000 </r>
       <r>   -6.7323    1.0000 </r>
       <r>   -6.6554    1.0000 </r>
       <r>   -6.5726    1.0000 </r>
       <r>   -6.5133    1.0000 </r>
       <r>   -6.4868    1.0000 </r>
       <r>   -6.4436    1.0000 </r>
       <r>   -6.3979    1.0000 </r>
       <r>   -6.3536    1.0000 </r>
       <r>   -6.3171    1.0000 </r>
       <r>   -6.2399    1.0000 </r>
       <r>   -6.2213    1.0000 </r>
       <r>   -6.1904    1.0000 </r>
       <r>   -6.1728    1.0000 </r>
       <r>   -6.1137    1.0000 </r>
       <r>   -6.0884    1.0000 </r>
       <r>   -6.0470    1.0000 </r>
       <r>   -5.8978    1.0000 </r>
       <r>   -5.8861    1.0000 </r>
       <r>   -3.4327    0.0000 </r>
       <r>   -3.3980    0.0000 </r>
       <r>   -3.3545    0.0000 </r>
       <r>   -3.3146    0.0000 </r>
       <r>   -3.2738    0.0000 </r>
       <r>   -3.1695    0.0000 </r>
       <r>   -3.1165    0.0000 </r>
       <r>   -3.0928    0.0000 </r>
       <r>   -3.0670    0.0000 </r>
       <r>   -2.9800    0.0000 </r>
[...]
       <r>   -28.7434     0.0000    12.0000 </r>
       <r>   -28.6256     0.0000    12.0000 </r>
       <r>   -28.5078     0.0000    12.0000 </r>
       <r>   -28.3900     0.0000    12.0000 </r>
       <r>   -28.2721     0.0000    12.0000 </r>
       <r>   -28.1543     0.0000    12.0000 </r>
       <r>   -28.0365     0.0000    12.0000 </r>
       <r>   -27.9187     0.0000    12.0000 </r>
       <r>   -27.8009     0.0000    12.0000 </r>
       <r>   -27.6831     0.0000    12.0000 </r>
       <r>   -27.5653     0.0000    12.0000 </r>
       <r>   -27.4475     0.0000    12.0000 </r>
       <r>   -27.3297     0.0000    12.0000 </r>
       <r>   -27.2119     0.0000    12.0000 </r>
       <r>   -27.0941     0.0000    12.0000 </r>
       <r>   -26.9763     0.0000    12.0000 </r>
       <r>   -26.8584     0.0000    12.0000 </r>
       <r>   -26.7406     0.0000    12.0000 </r>
       <r>   -26.6228     0.0000    12.0000 </r>
       <r>   -26.5050     0.0000    12.0000 </r>
       <r>   -26.3872    17.4268    14.0530 </r>
       <r>   -26.2694    16.9766    18.0000 </r>
       <r>   -26.1516    33.9541    22.0001 </r>
       <r>   -26.0338     0.0000    24.0000 </r>
       <r>   -25.9160     0.0000    24.0000 </r>
       <r>   -25.7982     0.0000    24.0000 </r>
       <r>   -25.6804     0.0000    24.0000 </r>
       <r>   -25.5625     0.0000    24.0000 </r>
       <r>   -25.4447     0.0000    24.0000 </r>
       <r>   -25.3269    33.9097    27.9949 </r>
       <r>   -25.2091    14.2332    31.6768 </r>
       <r>   -25.0913     0.0000    36.0000 </r>
       <r>   -24.9735     0.0000    36.0000 </r>
       <r>   -24.8557     0.0000    36.0000 </r>
       <r>   -24.7379     0.0000    36.0000 </r>
       <r>   -24.6201     0.0000    36.0000 </r>
       <r>   -24.5023     0.0000    36.0000 </r>
       <r>   -24.3845     0.0000    36.0000 </r>
       <r>   -24.2666     0.0000    36.0000 </r>
       <r>   -24.1488     0.0000    36.0000 </r>
       <r>   -24.0310     0.0000    36.0000 </r>
       <r>   -23.9132     0.0000    36.0000 </r>
       <r>   -23.7954     0.0000    36.0000 </r>
       <r>   -23.6776     0.0000    36.0000 </r>
       <r>   -23.5598     0.0000    36.0000 </r>
       <r>   -23.4420     0.0000    36.0000 </r>
       <r>   -23.3242    21.6796    40.5541 </r>
       <r>   -23.2064    33.9533    48.0000 </r>
       <r>   -23.0886     0.0000    48.0000 </r>
       <r>   -22.9707     0.0000    48.0000 </r>
       <r>   -22.8529     0.0000    48.0000 </r>
       <r>   -22.7351     0.0000    48.0000 </r>
       <r>   -22.6173     0.0000    48.0000 </r>
       <r>   -22.4995     0.0000    48.0000 </r>
       <r>   -22.3817     0.0000    48.0000 </r>
       <r>   -22.2639     0.0000    48.0000 </r>
       <r>   -22.1461     0.3827    48.0451 </r>
       <r>   -22.0283    19.7295    53.7410 </r>
       <r>   -21.9105    15.4156    55.8161 </r>
       <r>   -21.7927     0.0000    56.0000 </r>
       <r>   -21.6748     0.0000    56.0000 </r>
       <r>   -21.5570     0.0000    56.0000 </r>
       <r>   -21.4392     0.0000    56.0000 </r>
       <r>   -21.3214     0.0000    56.0000 </r>
       <r>   -21.2036     0.0000    56.0000 </r>
       <r>   -21.0858     0.0000    56.0000 </r>
       <r>   -20.9680    36.3967    60.2879 </r>
       <r>   -20.8502    13.8590    62.1661 </r>
       <r>   -20.7324     6.5248    63.6020 </r>
       <r>   -20.6146     1.3454    63.8585 </r>
       <r>   -20.4968    13.9806    65.6470 </r>
       <r>   -20.3789     1.6694    66.3633 </r>
       <r>   -20.2611    12.7325    68.0000 </r>
       <r>   -20.1433     0.0000    68.0000 </r>
       <r>   -20.0255     0.0000    68.0000 </r>
       <r>   -19.9077     0.0000    68.0000 </r>
       <r>   -19.7899     0.0000    68.0000 </r>
       <r>   -19.6721    33.9533    72.0000 </r>
       <r>   -19.5543     0.1006    72.0118 </r>
       <r>   -19.4365     3.1396    73.7032 </r>
       <r>   -19.3187     1.8780    74.0212 </r>
       <r>   -19.2009     5.3984    76.1693 </r>
       <r>   -19.0831     1.5242    76.4129 </r>
       <r>   -18.9652    12.7937    78.0072 </r>
       <r>   -18.8474    15.2088    81.7917 </r>
       <r>   -18.7296    14.9960    84.0000 </r>
       <r>   -18.6118     0.0000    84.0000 </r>
       <r>   -18.4940     0.0000    84.0000 </r>
       <r>   -18.3762     0.0000    84.0000 </r>
       <r>   -18.2584     0.0000    84.0000 </r>
       <r>   -18.1406     1.8535    84.2184 </r>
       <r>   -18.0228    27.8937    90.0028 </r>
       <r>   -17.9050     0.0039    92.0005 </r>
       <r>   -17.7872    12.8944    94.0191 </r>
       <r>   -17.6693     4.8100    96.0000 </r>
       <r>   -17.5515     0.0000    96.0000 </r>
       <r>   -17.4337     0.0000    96.0000 </r>
       <r>   -17.3159     0.0000    96.0000 </r>
       <r>   -17.1981     0.0000    96.0000 </r>
       <r>   -17.0803    17.2919    98.0371 </r>
       <r>   -16.9625    25.3757   103.9562 </r>
       <r>   -16.8447    13.7522   106.0035 </r>
       <r>   -16.7269     3.6783   108.0000 </r>
       <r>   -16.6091     0.0000   108.0000 </r>
       <r>   -16.4913     0.0000   108.0000 </r>
       <r>   -16.3734     0.0000   108.0000 </r>
       <r>   -16.2556     0.0000   108.0000 </r>
       <r>   -16.1378    16.9708   109.9993 </r>
       <r>   -16.0200     0.0000   110.0000 </r>
       <r>   -15.9022     0.0000   110.0000 </r>
       <r>   -15.7844    26.2111   113.4712 </r>
       <r>   -15.6666    14.2887   116.0000 </r>
       <r>   -15.5488    22.6870   119.1394 </r>
       <r>   -15.4310     0.0000   120.0000 </r>
       <r>   -15.3132    15.2751   121.9995 </r>
       <r>   -15.1954     6.7642   122.7969 </r>
       <r>   -15.0775    16.8488   125.9849 </r>
       <r>   -14.9597    11.1168   127.7097 </r>
       <r>   -14.8419    18.0613   129.9944 </r>
       <r>   -14.7241     9.4824   132.0004 </r>
       <r>   -14.6063    13.9127   134.0057 </r>
       <r>   -14.4885     3.3953   136.0000 </r>
       <r>   -14.3707     0.0000   136.0000 </r>
       <r>   -14.2529     0.0000   136.0000 </r>
       <r>   -14.1351     0.0000   136.0000 </r>
       <r>   -14.0173     0.0000   136.0000 </r>
       <r>   -13.8995    16.9766   138.0000 </r>
       <r>   -13.7816    30.7169   141.6187 </r>
       <r>   -13.6638    20.2722   146.3882 </r>
       <r>   -13.5460    26.8448   151.7626 </r>
       <r>   -13.4282    16.9766   156.0000 </r>
       <r>   -13.3104     0.0000   156.0000 </r>
       <r>   -13.1926    35.5909   160.1929 </r>
       <r>   -13.0748     9.5923   162.5467 </r>
       <r>   -12.9570    24.4747   168.0000 </r>
       <r>   -12.8392     0.0000   168.0000 </r>
       <r>   -12.7214    57.6283   175.1225 </r>
       <r>   -12.6036     0.0000   178.0000 </r>
       <r>   -12.4857    16.9766   180.0000 </r>
       <r>   -12.3679    29.7078   183.4998 </r>
       <r>   -12.2501    13.9904   188.1482 </r>
       <r>   -12.1323    11.3991   191.3429 </r>
       <r>   -12.0145    31.2851   196.0023 </r>
       <r>   -11.8967    42.8623   203.9996 </r>
       <r>   -11.7789     1.6208   204.1909 </r>
       <r>   -11.6611    19.0675   210.2463 </r>
       <r>   -11.5433     6.7514   214.4620 </r>
       <r>   -11.4255    19.7695   218.1624 </r>
       <r>   -11.3077     9.1558   219.3953 </r>
       <r>   -11.1899    15.3292   221.8059 </r>
       <r>   -11.0720    13.3509   224.8062 </r>
       <r>   -10.9542    30.7002   229.6168 </r>
       <r>   -10.8364    15.0484   232.6728 </r>
       <r>   -10.7186     0.0000   236.0000 </r>
       <r>   -10.6008     0.2524   236.0297 </r>
       <r>   -10.4830    13.0925   237.8091 </r>
       <r>   -10.3652     7.4440   238.8770 </r>
       <r>   -10.2474    19.6628   241.9998 </r>
       <r>   -10.1296    28.8601   246.0000 </r>
       <r>   -10.0118     0.0000   248.0000 </r>
       <r>    -9.8940    15.6920   249.8487 </r>
       <r>    -9.7761    18.7896   252.2136 </r>
       <r>    -9.6583     6.4613   253.0945 </r>
       <r>    -9.5405    11.3390   255.3025 </r>
       <r>    -9.4227     2.7074   255.8690 </r>
       <r>    -9.3049     0.0000   256.0000 </r>
       <r>    -9.1871    30.6951   259.6162 </r>
       <r>    -9.0693    25.0812   264.0548 </r>
       <r>    -8.9515    28.4347   269.3499 </r>
       <r>    -8.8337    33.5748   273.9554 </r>
       <r>    -8.7159    15.3995   276.6642 </r>
       <r>    -8.5981    34.0341   282.0095 </r>
       <r>    -8.4802     0.0000   284.0000 </r>
       <r>    -8.3624     0.0000   284.0000 </r>
       <r>    -8.2446     1.4937   284.1760 </r>
       <r>    -8.1268    15.6056   288.0718 </r>
       <r>    -8.0090     4.2442   290.0000 </r>
       <r>    -7.8912    16.9385   291.9955 </r>
       <r>    -7.7734    29.2124   295.8415 </r>
       <r>    -7.6556    17.0140   300.0044 </r>
       <r>    -7.5378    16.9592   303.9979 </r>
       <r>    -7.4200    39.3450   308.6352 </r>
       <r>    -7.3022    48.1651   315.8576 </r>
       <r>    -7.1843    60.8145   323.9978 </r>
       <r>    -7.0665    37.9488   328.4707 </r>
       <r>    -6.9487    16.9768   332.0000 </r>
       <r>    -6.8309    22.8146   335.9878 </r>
       <r>    -6.7131    16.9725   337.9995 </r>
       <r>    -6.5953     7.0795   340.0007 </r>
       <r>    -6.4775    33.4118   345.9362 </r>
       <r>    -6.3597    25.5007   350.1209 </r>
       <r>    -6.2419    20.6738   355.7022 </r>
       <r>    -6.1241    28.3632   361.5081 </r>
       <r>    -6.0063    32.1141   368.0000 </r>
       <r>    -5.8884    25.4137   370.9940 </r>
       <r>    -5.7706     0.0000   372.0000 </r>
       <r>    -5.6528     0.0000   372.0000 </r>
       <r>    -5.5350     0.0000   372.0000 </r>
       <r>    -5.4172     0.0000   372.0000 </r>
       <r>    -5.2994     0.0000   372.0000 </r>
       <r>    -5.1816     0.0000   372.0000 </r>
       <r>    -5.0638     0.0000   372.0000 </r>
       <r>    -4.9460     0.0000   372.0000 </r>
       <r>    -4.8282     0.0000   372.0000 </r>
       <r>    -4.7104     0.0000   372.0000 </r>
       <r>    -4.5926     0.0000   372.0000 </r>
       <r>    -4.4747     0.0000   372.0000 </r>
       <r>    -4.3569     0.0000   372.0000 </r>
       <r>    -4.2391     0.0000   372.0000 </r>
       <r>    -4.1213     0.0000   372.0000 </r>
       <r>    -4.0035     0.0000   372.0000 </r>
       <r>    -3.8857     0.0000   372.0000 </r>
       <r>    -3.7679     0.0000   372.0000 </r>
       <r>    -3.6501     0.0000   372.0000 </r>
       <r>    -3.5323     0.0000   372.0000 </r>
       <r>    -3.4145    17.0199   374.0051 </r>
       <r>    -3.2967    33.9153   379.9955 </r>
       <r>    -3.1788     5.6500   382.6656 </r>
       <r>    -3.0610    33.1018   388.3330 </r>
       <r>    -2.9432    22.0283   391.9951 </r>
       <r>    -2.8254     0.0000   394.0000 </r>
       <r>    -2.7076     7.2151   396.0000 </r>
       <r>    -2.5898     0.0000   396.0000 </r>
       <r>    -2.4720     0.0000   396.0000 </r>
       <r>    -2.3542     0.0000   396.0000 </r>
       <r>    -2.2364    25.7696   399.2692 </r>
       <r>    -2.1186    16.9766   402.0000 </r>
       <r>    -2.0008     0.0000   402.0000 </r>
       <r>    -1.8829    33.9440   405.9989 </r>
       <r>    -1.7651    16.6933   407.9666 </r>
       <r>    -1.6473    20.8651   410.4581 </r>
       <r>    -1.5295     4.9357   412.4815 </r>
       <r>    -1.4117     4.8100   414.0000 </r>
       <r>    -1.2939     0.0000   414.0000 </r>
       <r>    -1.1761     3.9219   414.4620 </r>
       <r>    -1.0583     3.1207   415.7010 </r>
       <r>    -0.9405    13.4085   417.3963 </r>
       <r>    -0.8227     6.7843   418.5326 </r>
       <r>    -0.7049     2.9709   420.0000 </r>
       <r>    -0.5870     0.0000   420.0000 </r>
       <r>    -0.4692    13.8014   421.6259 </r>
       <r>    -0.3514    17.8169   424.0657 </r>
       <r>    -0.2336    14.3779   426.0272 </r>
       <r>    -0.1158    12.9587   427.9767 </r>
       <r>     0.0020    11.3237   429.6340 </r>
       <r>     0.1198     9.8314   431.3416 </r>
       <r>     0.2376    10.0120   433.1795 </r>
       <r>     0.3554    17.8444   436.0522 </r>
       <r>     0.4732    15.1563   439.3022 </r>
       <r>     0.5910    23.5583   443.5420 </r>
       <r>     0.7089    32.7174   449.5044 </r>
       <r>     0.8267    21.8679   454.0096 </r>
       <r>     0.9445    35.5027   459.9992 </r>
       <r>     1.0623    35.4953   466.7983 </r>
       <r>     1.1801    35.4103   472.4217 </r>
       <r>     1.2979    32.1644   478.2226 </r>
       <r>     1.4157     0.7074   480.0000 </r>
       <r>     1.5335     0.0000   480.0000 </r>
       <r>     1.6513     0.0000   480.0000 </r>
       <r>     1.7691     0.0000   480.0000 </r>
       <r>     1.8869     0.0000   480.0000 </r>
       <r>     2.0048     0.0000   480.0000 </r>
       <r>     2.1226     0.0000   480.0000 </r>
       <r>     2.2404     0.0000   480.0000 </r>
       <r>     2.3582     0.0000   480.0000 </r>
       <r>     2.4760     0.0000   480.0000 </r>
       <r>     2.5938     0.0000   480.0000 </r>
       <r>     2.7116     0.0000   480.0000 </r>
       <r>     2.8294     0.0000   480.0000 </r>
       <r>     2.9472     0.0000   480.0000 </r>
      </set>
     </set>
    </array>
   </total>
  </dos>
 </calculation>
 <structure name="finalpos" >
  <crystal>
   <varray name="basis" >
    <v>      21.82270768      -0.11477742       0.00000000 </v>
    <v>     -11.00039879      18.94057972       0.00000000 </v>
    <v>       0.00000000       0.00000000      20.00000000 </v>
   </varray>
   <i name="volume">   8241.44274168 </i>
   <varray name="rec_basis" >
    <v>       0.04596423       0.02669532       0.00000000 </v>
    <v>       0.00027854       0.05295846       0.00000000 </v>
    <v>       0.00000000       0.00000000       0.05000000 </v>
   </varray>
  </crystal>
  <varray name="positions" >
   <v>       0.95629035       0.75369323       0.60538468 </v>
   <v>       0.99861459       0.83609663       0.68386735 </v>
   <v>       0.32778294       0.86154167       0.33062121 </v>
   <v>       0.12731750       0.45659458       0.33090611 </v>
   <v>       0.18611278       0.56617959       0.29232037 </v>
   <v>       0.41724762       0.63369794       0.26404903 </v>
   <v>       0.53131299       0.67467347       0.28326420 </v>
   <v>       0.36418536       0.79255535       0.28722792 </v>
   <v>       0.96775101       0.18857923       0.61716366 </v>
   <v>       0.02145435       0.14978369       0.68400122 </v>
   <v>       0.81811334       0.04505002       0.58753810 </v>
   <v>       0.85292734       0.99718635       0.66512311 </v>
   <v>       0.25111679       0.96453419       0.52061939 </v>
   <v>       0.94629510       0.86567753       0.56272446 </v>
   <v>       0.14545660       0.06351264       0.57579358 </v>
   <v>       0.30919722       0.91230540       0.51752902 </v>
   <v>       0.10715713       0.71704998       0.53122480 </v>
   <v>       0.30257109       0.37396508       0.48451279 </v>
   <v>       0.27939649       0.54636370       0.41473366 </v>
   <v>       0.63771755       0.70460860       0.47034963 </v>
   <v>       0.46418414       0.72636365       0.39808826 </v>
   <v>       0.23880805       0.26156946       0.48042548 </v>
   <v>       0.75394644       0.76976144       0.47055386 </v>
   <v>       0.94913235       0.06281911       0.55302996 </v>
   <v>       0.28570833       0.72065928       0.43504201 </v>
   <v>       0.10548197       0.37095373       0.51793070 </v>
   <v>       0.64333394       0.90346948       0.49268505 </v>
   <v>       0.10586956       0.58899513       0.56986710 </v>
   <v>       0.42965129       0.48454784       0.50597484 </v>
   <v>       0.53475391       0.91638765       0.53321004 </v>
   <v>       0.19713325       0.93071285       0.53925191 </v>
   <v>       0.05087031       0.96017890       0.57338136 </v>
   <v>       0.08768718       0.03441051       0.57326243 </v>
   <v>       0.97675967       0.92317314       0.56687979 </v>
   <v>       0.09275005       0.92434872       0.57324856 </v>
   <v>       0.06905109       0.85339276       0.59103474 </v>
   <v>       0.20330757       0.81897049       0.52479314 </v>
   <v>       0.16809889       0.85724535       0.54881843 </v>
   <v>       0.19244871       0.70965789       0.48321228 </v>
   <v>       0.30548347       0.82087797       0.47450510 </v>
   <v>       0.27564824       0.85597240       0.50711968 </v>
   <v>       0.16258903       0.74509285       0.51526882 </v>
   <v>       0.29894931       0.46434115       0.44728252 </v>
   <v>       0.26994626       0.39823660       0.47824482 </v>
   <v>       0.54912226       0.81918163       0.44426786 </v>
   <v>       0.51677193       0.74938066       0.42072923 </v>
   <v>       0.54766840       0.70764534       0.43101420 </v>
   <v>       0.61455437       0.73775333       0.46127164 </v>
   <v>       0.64994704       0.80923225       0.48085150 </v>
   <v>       0.19004242       0.24350417       0.50912948 </v>
   <v>       0.77044019       0.81946346       0.49677202 </v>
   <v>       0.15939897       0.54786262       0.40655884 </v>
   <v>       0.50114298       0.63138568       0.41773962 </v>
   <v>       0.37424447       0.50918020       0.42761314 </v>
   <v>       0.45099892       0.60518948       0.36500074 </v>
   <v>       0.40296435       0.83941677       0.39434570 </v>
   <v>       0.72282054       0.84408790       0.50810542 </v>
   <v>       0.05126591       0.07141430       0.56726726 </v>
   <v>       0.97699337       0.03392571       0.56170508 </v>
   <v>       0.93952253       0.95963336       0.56123703 </v>
   <v>       0.26300186       0.74849423       0.46088908 </v>
   <v>       0.25642886       0.49483259       0.43916890 </v>
   <v>       0.18766135       0.46291034       0.46581905 </v>
   <v>       0.15911104       0.39709057       0.49734906 </v>
   <v>       0.19918390       0.36321934       0.50107778 </v>
   <v>       0.61598680       0.84908565       0.47435125 </v>
   <v>       0.15376415       0.50660240       0.46314877 </v>
   <v>       0.15777336       0.63215023       0.47270821 </v>
   <v>       0.38124641       0.85320602       0.45630676 </v>
   <v>       0.50392322       0.85153385       0.44150217 </v>
   <v>       0.09333111       0.14907396       0.55944902 </v>
   <v>       0.16553346       0.28992972       0.52643152 </v>
   <v>       0.07442643       0.19821480       0.58231842 </v>
   <v>       0.86235408       0.91794055       0.54818935 </v>
   <v>       0.81179432       0.93767748       0.56433507 </v>
   <v>       0.12782980       0.58050125       0.52408301 </v>
   <v>       0.43291649       0.52220579       0.46832574 </v>
   <v>       0.49412826       0.88815606       0.49513446 </v>
   <v>       0.15962666       0.96217137       0.54958138 </v>
   <v>       0.00210437       0.81041390       0.62990304 </v>
   <v>       0.10356751       0.82003760       0.57733746 </v>
   <v>       0.15402621       0.17496183       0.52413288 </v>
   <v>       0.83826625       0.85630948       0.51509796 </v>
   <v>       0.16667397       0.61086293       0.41256601 </v>
   <v>       0.15791775       0.52199872       0.33708459 </v>
   <v>       0.38785454       0.54891080       0.37258700 </v>
   <v>       0.46726476       0.64069662       0.29827754 </v>
   <v>       0.45995019       0.83404625       0.38903257 </v>
   <v>       0.36158792       0.82989126       0.33179629 </v>
   <v>       0.10729944       0.26552055       0.56510649 </v>
   <v>       0.01579911       0.17702271       0.63190543 </v>
   <v>       0.74541415       0.90387577       0.54363192 </v>
   <v>       0.82919183       0.99882364       0.60943414 </v>
   <v>       0.13053902       0.52120583       0.51961491 </v>
   <v>       0.49313339       0.58436353       0.46498273 </v>
   <v>       0.43175222       0.88459979       0.50320421 </v>
  </varray>
 </structure>
</modeling>
