<?xml version="1.0" encoding="ISO-8859-1"?>
<modeling>
 <generator>
  <i name="program" type="string">vasp </i>
  <i name="version" type="string">5.4.4.18Apr17-6-g9f103f2a35  </i>
  <i name="subversion" type="string">(build Jun 07 2020 16:50:00) complex            parallel </i>
  <i name="platform" type="string">LinuxIFC </i>
  <i name="date" type="string">2023 03 01 </i>
  <i name="time" type="string">07:45:50 </i>
 </generator>
 <incar>
  <i type="string" name="SYSTEM">Simulation for cell shape cell volume r</i>
  <i type="int" name="ISTART">     1</i>
  <i type="string" name="PREC">high</i>
  <i type="string" name="ALGO">48</i>
  <i type="int" name="ICHARG">    11</i>
  <i type="int" name="NELM">   200</i>
  <i type="int" name="IBRION">    -1</i>
  <i name="EDIFF">      0.00001000</i>
  <i name="EDIFFG">     -0.01000000</i>
  <i type="int" name="NSW">     0</i>
  <i type="int" name="ISIF">     2</i>
  <i name="ENCUT">    500.00000000</i>
  <i name="POTIM">      0.30000000</i>
  <i type="string" name="LREAL">A</i>
  <i type="int" name="ISMEAR">     0</i>
  <i name="SIGMA">      0.01000000</i>
  <i type="int" name="NWRITE">     0</i>
  <i type="logical" name="LWAVE"> F  </i>
  <i type="logical" name="LCHARG"> F  </i>
  <v type="int" name="KPOINT_BSE">    -1     0     0     0</v>
  <i type="int" name="NELM">   200</i>
  <i type="string" name="GGA">PE</i>
 </incar>
 <structure name="primitive_cell" >
  <crystal>
   <varray name="basis" >
    <v>      21.79081806      -0.03056468       0.00000000 </v>
    <v>     -10.92184548      18.82189741       0.00000000 </v>
    <v>       0.00000000       0.00000000      20.00000000 </v>
   </varray>
   <i name="volume">   8196.21438381 </i>
   <varray name="rec_basis" >
    <v>       0.04592827       0.02665095       0.00000000 </v>
    <v>       0.00007458       0.05317288       0.00000000 </v>
    <v>       0.00000000       0.00000000       0.05000000 </v>
   </varray>
  </crystal>
  <varray name="positions" >
   <v>       0.38097808      -0.35007682       0.45989655 </v>
   <v>       0.31426158      -0.40441453       0.45944135 </v>
   <v>       0.39959804      -0.28085669       0.46024997 </v>
   <v>       0.44062060      -0.36587934       0.46170517 </v>
   <v>       0.46988217      -0.34312041      -0.49077757 </v>
   <v>       0.47846105      -0.33440396       0.42156774 </v>
   <v>       0.34549351      -0.26848826       0.46063562 </v>
   <v>       0.26369272      -0.38601149       0.45975646 </v>
   <v>       0.41514719      -0.44059946       0.45564312 </v>
   <v>       0.36165566      -0.47100079       0.46175531 </v>
   <v>       0.27630864      -0.31929774       0.46018454 </v>
   <v>       0.46626987      -0.16651989       0.46314020 </v>
   <v>       0.18792310      -0.44582697       0.46132217 </v>
   <v>       0.36143183      -0.19284287       0.46331943 </v>
   <v>       0.45590835      -0.46994542       0.47637466 </v>
   <v>       0.18143444      -0.48373259       0.42128451 </v>
   <v>       0.18103993      -0.47507318      -0.49108835 </v>
   <v>       0.43611862      -0.14324059       0.45769558 </v>
   <v>      -0.44235136      -0.37140075       0.47593452 </v>
   <v>       0.33857394      -0.18700462      -0.48900074 </v>
   <v>       0.33015404      -0.18607983       0.42338414 </v>
   <v>      -0.46997735      -0.42855833       0.48502311 </v>
   <v>       0.16283917      -0.36660390       0.46115833 </v>
   <v>       0.13897402      -0.42021984       0.45501384 </v>
   <v>       0.42362271       0.45648808       0.48791214 </v>
   <v>       0.36622496       0.42301958       0.48165296 </v>
   <v>       0.46563188      -0.07329889       0.47973153 </v>
   <v>      -0.42767798      -0.05601876       0.48439728 </v>
   <v>      -0.43044699      -0.45969956      -0.49558691 </v>
   <v>       0.06910739      -0.46031672       0.47731114 </v>
   <v>      -0.46089444      -0.03209906       0.49146059 </v>
   <v>       0.46316782       0.42532635      -0.49273755 </v>
   <v>       0.06441564       0.43748098       0.47764327 </v>
   <v>       0.36744580      -0.07013853       0.48049568 </v>
   <v>       0.42453877      -0.04064277       0.48956801 </v>
   <v>      -0.37306248      -0.42621362      -0.48926905 </v>
   <v>      -0.46273883       0.46674902      -0.48395138 </v>
   <v>       0.03566668       0.46562112       0.48709473 </v>
   <v>       0.43557199       0.36816230      -0.48369415 </v>
   <v>       0.05344928      -0.36988624       0.48241851 </v>
   <v>       0.02886045      -0.42729903       0.48938576 </v>
   <v>      -0.42949916       0.03850371      -0.48796655 </v>
   <v>       0.45594370       0.02994759      -0.48987355 </v>
   <v>      -0.42193518       0.43760702      -0.46287403 </v>
   <v>      -0.03478796       0.42680439      -0.49205388 </v>
   <v>      -0.37242305       0.06795905      -0.47880080 </v>
   <v>      -0.47058650       0.07117296      -0.47818878 </v>
   <v>      -0.04160819      -0.46611636      -0.48978699 </v>
   <v>      -0.36842390       0.46798373      -0.46887464 </v>
   <v>       0.42272127       0.05385394      -0.48275661 </v>
   <v>      -0.05934151       0.36940337      -0.48498124 </v>
   <v>      -0.07506472       0.45980476      -0.48007237 </v>
   <v>      -0.47577975       0.33953730       0.48417425 </v>
   <v>      -0.44723750       0.36286859      -0.46809341 </v>
   <v>      -0.48561122       0.33166263      -0.42822405 </v>
   <v>      -0.07035796      -0.43798396      -0.48027219 </v>
   <v>      -0.44118787       0.14118589      -0.45623572 </v>
   <v>      -0.34403386       0.18413812       0.48987413 </v>
   <v>      -0.14494484       0.41967635      -0.45790487 </v>
   <v>      -0.47139465       0.16430678      -0.46268409 </v>
   <v>      -0.38735722       0.34751840      -0.46453786 </v>
   <v>      -0.36657372       0.19101746      -0.46269780 </v>
   <v>      -0.33482630       0.18547256      -0.42247319 </v>
   <v>      -0.32080615       0.40219732      -0.46428775 </v>
   <v>      -0.16841110       0.36597494      -0.46295281 </v>
   <v>      -0.18769300       0.47320305       0.48716941 </v>
   <v>      -0.19433985       0.44459626      -0.46489313 </v>
   <v>      -0.18824717       0.48284856      -0.42534373 </v>
   <v>      -0.40551405       0.27845627      -0.46322613 </v>
   <v>      -0.35107584       0.26658264      -0.46190948 </v>
   <v>      -0.26989109       0.38432503      -0.46295074 </v>
   <v>      -0.28203615       0.31777964      -0.46141429 </v>
  </varray>
 </structure>
 <varray name="primitive_index" >
  <v type="int" >        1 </v>
  <v type="int" >       63 </v>
  <v type="int" >       61 </v>
  <v type="int" >        5 </v>
  <v type="int" >       33 </v>
  <v type="int" >       48 </v>
  <v type="int" >        2 </v>
  <v type="int" >        3 </v>
  <v type="int" >       71 </v>
  <v type="int" >       57 </v>
  <v type="int" >       62 </v>
  <v type="int" >       54 </v>
  <v type="int" >        4 </v>
  <v type="int" >       20 </v>
  <v type="int" >       25 </v>
  <v type="int" >       47 </v>
  <v type="int" >       32 </v>
  <v type="int" >       70 </v>
  <v type="int" >       40 </v>
  <v type="int" >       31 </v>
  <v type="int" >       46 </v>
  <v type="int" >       15 </v>
  <v type="int" >       60 </v>
  <v type="int" >       72 </v>
  <v type="int" >       26 </v>
  <v type="int" >       55 </v>
  <v type="int" >       22 </v>
  <v type="int" >       52 </v>
  <v type="int" >       14 </v>
  <v type="int" >       28 </v>
  <v type="int" >       23 </v>
  <v type="int" >       27 </v>
  <v type="int" >       43 </v>
  <v type="int" >       37 </v>
  <v type="int" >       12 </v>
  <v type="int" >       41 </v>
  <v type="int" >       16 </v>
  <v type="int" >       18 </v>
  <v type="int" >       56 </v>
  <v type="int" >       58 </v>
  <v type="int" >       29 </v>
  <v type="int" >       24 </v>
  <v type="int" >       11 </v>
  <v type="int" >       68 </v>
  <v type="int" >       17 </v>
  <v type="int" >       53 </v>
  <v type="int" >       13 </v>
  <v type="int" >       30 </v>
  <v type="int" >       42 </v>
  <v type="int" >       38 </v>
  <v type="int" >       44 </v>
  <v type="int" >       19 </v>
  <v type="int" >       51 </v>
  <v type="int" >       10 </v>
  <v type="int" >       36 </v>
  <v type="int" >       59 </v>
  <v type="int" >       67 </v>
  <v type="int" >       49 </v>
  <v type="int" >       69 </v>
  <v type="int" >       39 </v>
  <v type="int" >        6 </v>
  <v type="int" >       21 </v>
  <v type="int" >       34 </v>
  <v type="int" >       66 </v>
  <v type="int" >       45 </v>
  <v type="int" >       50 </v>
  <v type="int" >        9 </v>
  <v type="int" >       35 </v>
  <v type="int" >       64 </v>
  <v type="int" >        7 </v>
  <v type="int" >        8 </v>
  <v type="int" >       65 </v>
 </varray>
 <kpoints>
  <generation param="listgenerated">
   <i name="divisions" type="int">      20 </i>
   <v>       0.00000000       0.00000000       0.00000000 </v>
   <v>       0.50000000      -0.50000000       0.00000000 </v>
   <v>       0.66781432      -0.33310203       0.00000000 </v>
   <v>       0.50000000       0.00000000       0.00000000 </v>
   <v>       0.33218568       0.33310203       0.00000000 </v>
   <v>       0.00000000       0.50000000       0.00000000 </v>
   <v>       0.00000000       0.00000000       0.00000000 </v>
  </generation>
  <varray name="kpointlist" >
   <v>       0.00000000       0.00000000       0.00000000 </v>
   <v>       0.02631579      -0.02631579       0.00000000 </v>
   <v>       0.05263158      -0.05263158       0.00000000 </v>
   <v>       0.07894737      -0.07894737       0.00000000 </v>
   <v>       0.10526316      -0.10526316       0.00000000 </v>
   <v>       0.13157895      -0.13157895       0.00000000 </v>
   <v>       0.15789474      -0.15789474       0.00000000 </v>
   <v>       0.18421053      -0.18421053       0.00000000 </v>
   <v>       0.21052632      -0.21052632       0.00000000 </v>
   <v>       0.23684211      -0.23684211       0.00000000 </v>
   <v>       0.26315789      -0.26315789       0.00000000 </v>
   <v>       0.28947368      -0.28947368       0.00000000 </v>
   <v>       0.31578947      -0.31578947       0.00000000 </v>
   <v>       0.34210526      -0.34210526       0.00000000 </v>
   <v>       0.36842105      -0.36842105       0.00000000 </v>
   <v>       0.39473684      -0.39473684       0.00000000 </v>
   <v>       0.42105263      -0.42105263       0.00000000 </v>
   <v>       0.44736842      -0.44736842       0.00000000 </v>
   <v>       0.47368421      -0.47368421       0.00000000 </v>
   <v>       0.50000000      -0.50000000       0.00000000 </v>
   <v>       0.50000000      -0.50000000       0.00000000 </v>
   <v>       0.50883233      -0.49121590       0.00000000 </v>
   <v>       0.51766467      -0.48243179       0.00000000 </v>
   <v>       0.52649700      -0.47364769       0.00000000 </v>
   <v>       0.53532933      -0.46486359       0.00000000 </v>
   <v>       0.54416166      -0.45607948       0.00000000 </v>
   <v>       0.55299400      -0.44729538       0.00000000 </v>
   <v>       0.56182633      -0.43851127       0.00000000 </v>
   <v>       0.57065866      -0.42972717       0.00000000 </v>
   <v>       0.57949100      -0.42094307       0.00000000 </v>
   <v>       0.58832333      -0.41215896       0.00000000 </v>
   <v>       0.59715566      -0.40337486       0.00000000 </v>
   <v>       0.60598799      -0.39459076       0.00000000 </v>
   <v>       0.61482033      -0.38580665       0.00000000 </v>
   <v>       0.62365266      -0.37702255       0.00000000 </v>
   <v>       0.63248499      -0.36823845       0.00000000 </v>
   <v>       0.64131733      -0.35945434       0.00000000 </v>
   <v>       0.65014966      -0.35067024       0.00000000 </v>
   <v>       0.65898199      -0.34188613       0.00000000 </v>
   <v>       0.66781432      -0.33310203       0.00000000 </v>
   <v>       0.66781432      -0.33310203       0.00000000 </v>
   <v>       0.65898199      -0.31557034       0.00000000 </v>
   <v>       0.65014966      -0.29803866       0.00000000 </v>
   <v>       0.64131733      -0.28050697       0.00000000 </v>
   <v>       0.63248499      -0.26297529       0.00000000 </v>
   <v>       0.62365266      -0.24544360       0.00000000 </v>
   <v>       0.61482033      -0.22791192       0.00000000 </v>
   <v>       0.60598799      -0.21038023       0.00000000 </v>
   <v>       0.59715566      -0.19284854       0.00000000 </v>
   <v>       0.58832333      -0.17531686       0.00000000 </v>
   <v>       0.57949100      -0.15778517       0.00000000 </v>
   <v>       0.57065866      -0.14025349       0.00000000 </v>
   <v>       0.56182633      -0.12272180       0.00000000 </v>
   <v>       0.55299400      -0.10519011       0.00000000 </v>
   <v>       0.54416166      -0.08765843       0.00000000 </v>
   <v>       0.53532933      -0.07012674       0.00000000 </v>
   <v>       0.52649700      -0.05259506       0.00000000 </v>
   <v>       0.51766467      -0.03506337       0.00000000 </v>
   <v>       0.50883233      -0.01753169       0.00000000 </v>
   <v>       0.50000000       0.00000000       0.00000000 </v>
   <v>       0.50000000       0.00000000       0.00000000 </v>
   <v>       0.49116767       0.01753169       0.00000000 </v>
   <v>       0.48233533       0.03506337       0.00000000 </v>
   <v>       0.47350300       0.05259506       0.00000000 </v>
   <v>       0.46467067       0.07012674       0.00000000 </v>
   <v>       0.45583834       0.08765843       0.00000000 </v>
   <v>       0.44700600       0.10519011       0.00000000 </v>
   <v>       0.43817367       0.12272180       0.00000000 </v>
   <v>       0.42934134       0.14025349       0.00000000 </v>
   <v>       0.42050900       0.15778517       0.00000000 </v>
   <v>       0.41167667       0.17531686       0.00000000 </v>
   <v>       0.40284434       0.19284854       0.00000000 </v>
   <v>       0.39401201       0.21038023       0.00000000 </v>
   <v>       0.38517967       0.22791192       0.00000000 </v>
   <v>       0.37634734       0.24544360       0.00000000 </v>
   <v>       0.36751501       0.26297529       0.00000000 </v>
   <v>       0.35868267       0.28050697       0.00000000 </v>
   <v>       0.34985034       0.29803866       0.00000000 </v>
   <v>       0.34101801       0.31557034       0.00000000 </v>
   <v>       0.33218568       0.33310203       0.00000000 </v>
   <v>       0.33218568       0.33310203       0.00000000 </v>
   <v>       0.31470222       0.34188613       0.00000000 </v>
   <v>       0.29721876       0.35067024       0.00000000 </v>
   <v>       0.27973531       0.35945434       0.00000000 </v>
   <v>       0.26225185       0.36823845       0.00000000 </v>
   <v>       0.24476839       0.37702255       0.00000000 </v>
   <v>       0.22728494       0.38580665       0.00000000 </v>
   <v>       0.20980148       0.39459076       0.00000000 </v>
   <v>       0.19231802       0.40337486       0.00000000 </v>
   <v>       0.17483457       0.41215896       0.00000000 </v>
   <v>       0.15735111       0.42094307       0.00000000 </v>
   <v>       0.13986765       0.42972717       0.00000000 </v>
   <v>       0.12238420       0.43851127       0.00000000 </v>
   <v>       0.10490074       0.44729538       0.00000000 </v>
   <v>       0.08741728       0.45607948       0.00000000 </v>
   <v>       0.06993383       0.46486359       0.00000000 </v>
   <v>       0.05245037       0.47364769       0.00000000 </v>
   <v>       0.03496691       0.48243179       0.00000000 </v>
   <v>       0.01748346       0.49121590       0.00000000 </v>
   <v>       0.00000000       0.50000000       0.00000000 </v>
   <v>       0.00000000       0.50000000       0.00000000 </v>
   <v>       0.00000000       0.47368421       0.00000000 </v>
   <v>       0.00000000       0.44736842       0.00000000 </v>
   <v>       0.00000000       0.42105263       0.00000000 </v>
   <v>       0.00000000       0.39473684       0.00000000 </v>
   <v>       0.00000000       0.36842105       0.00000000 </v>
   <v>       0.00000000       0.34210526       0.00000000 </v>
   <v>       0.00000000       0.31578947       0.00000000 </v>
   <v>       0.00000000       0.28947368       0.00000000 </v>
   <v>       0.00000000       0.26315789       0.00000000 </v>
   <v>       0.00000000       0.23684211       0.00000000 </v>
   <v>       0.00000000       0.21052632       0.00000000 </v>
   <v>       0.00000000       0.18421053       0.00000000 </v>
   <v>       0.00000000       0.15789474       0.00000000 </v>
   <v>       0.00000000       0.13157895       0.00000000 </v>
   <v>       0.00000000       0.10526316       0.00000000 </v>
   <v>       0.00000000       0.07894737       0.00000000 </v>
   <v>       0.00000000       0.05263158       0.00000000 </v>
   <v>       0.00000000       0.02631579       0.00000000 </v>
   <v>       0.00000000       0.00000000       0.00000000 </v>
  </varray>
  <varray name="weights" >
   <v>       0.00833333 </v>
   <v>       0.00833333 </v>
   <v>       0.00833333 </v>
   <v>       0.00833333 </v>
   <v>       0.00833333 </v>
   <v>       0.00833333 </v>
   <v>       0.00833333 </v>
   <v>       0.00833333 </v>
   <v>       0.00833333 </v>
   <v>       0.00833333 </v>
   <v>       0.00833333 </v>
   <v>       0.00833333 </v>
   <v>       0.00833333 </v>
   <v>       0.00833333 </v>
   <v>       0.00833333 </v>
   <v>       0.00833333 </v>
   <v>       0.00833333 </v>
   <v>       0.00833333 </v>
   <v>       0.00833333 </v>
   <v>       0.00833333 </v>
   <v>       0.00833333 </v>
   <v>       0.00833333 </v>
   <v>       0.00833333 </v>
   <v>       0.00833333 </v>
   <v>       0.00833333 </v>
   <v>       0.00833333 </v>
   <v>       0.00833333 </v>
   <v>       0.00833333 </v>
   <v>       0.00833333 </v>
   <v>       0.00833333 </v>
   <v>       0.00833333 </v>
   <v>       0.00833333 </v>
   <v>       0.00833333 </v>
   <v>       0.00833333 </v>
   <v>       0.00833333 </v>
   <v>       0.00833333 </v>
   <v>       0.00833333 </v>
   <v>       0.00833333 </v>
   <v>       0.00833333 </v>
   <v>       0.00833333 </v>
   <v>       0.00833333 </v>
   <v>       0.00833333 </v>
   <v>       0.00833333 </v>
   <v>       0.00833333 </v>
   <v>       0.00833333 </v>
   <v>       0.00833333 </v>
   <v>       0.00833333 </v>
   <v>       0.00833333 </v>
   <v>       0.00833333 </v>
   <v>       0.00833333 </v>
   <v>       0.00833333 </v>
   <v>       0.00833333 </v>
   <v>       0.00833333 </v>
   <v>       0.00833333 </v>
   <v>       0.00833333 </v>
   <v>       0.00833333 </v>
   <v>       0.00833333 </v>
   <v>       0.00833333 </v>
   <v>       0.00833333 </v>
   <v>       0.00833333 </v>
   <v>       0.00833333 </v>
   <v>       0.00833333 </v>
   <v>       0.00833333 </v>
   <v>       0.00833333 </v>
   <v>       0.00833333 </v>
   <v>       0.00833333 </v>
   <v>       0.00833333 </v>
   <v>       0.00833333 </v>
   <v>       0.00833333 </v>
   <v>       0.00833333 </v>
   <v>       0.00833333 </v>
   <v>       0.00833333 </v>
   <v>       0.00833333 </v>
   <v>       0.00833333 </v>
   <v>       0.00833333 </v>
   <v>       0.00833333 </v>
   <v>       0.00833333 </v>
   <v>       0.00833333 </v>
   <v>       0.00833333 </v>
   <v>       0.00833333 </v>
   <v>       0.00833333 </v>
   <v>       0.00833333 </v>
   <v>       0.00833333 </v>
   <v>       0.00833333 </v>
   <v>       0.00833333 </v>
   <v>       0.00833333 </v>
   <v>       0.00833333 </v>
   <v>       0.00833333 </v>
   <v>       0.00833333 </v>
   <v>       0.00833333 </v>
   <v>       0.00833333 </v>
   <v>       0.00833333 </v>
   <v>       0.00833333 </v>
   <v>       0.00833333 </v>
   <v>       0.00833333 </v>
   <v>       0.00833333 </v>
   <v>       0.00833333 </v>
   <v>       0.00833333 </v>
   <v>       0.00833333 </v>
   <v>       0.00833333 </v>
   <v>       0.00833333 </v>
   <v>       0.00833333 </v>
   <v>       0.00833333 </v>
   <v>       0.00833333 </v>
   <v>       0.00833333 </v>
   <v>       0.00833333 </v>
   <v>       0.00833333 </v>
   <v>       0.00833333 </v>
   <v>       0.00833333 </v>
   <v>       0.00833333 </v>
   <v>       0.00833333 </v>
   <v>       0.00833333 </v>
   <v>       0.00833333 </v>
   <v>       0.00833333 </v>
   <v>       0.00833333 </v>
   <v>       0.00833333 </v>
   <v>       0.00833333 </v>
   <v>       0.00833333 </v>
   <v>       0.00833333 </v>
   <v>       0.00833333 </v>
  </varray>
 </kpoints>
 <parameters>
  <separator name="general" >
   <i type="string" name="SYSTEM">Simulation for cell shape cell volume r</i>
   <i type="logical" name="LCOMPAT"> F  </i>
  </separator>
  <separator name="electronic" >
   <i type="string" name="PREC">high</i>
   <i name="ENMAX">    500.00000000</i>
   <i name="ENAUG">    644.87300000</i>
   <i name="EDIFF">      0.00001000</i>
   <i type="int" name="IALGO">    38</i>
   <i type="int" name="IWAVPR">    10</i>
   <i type="int" name="NBANDS">   144</i>
   <i name="NELECT">    210.00000000</i>
   <i type="int" name="TURBO">     0</i>
   <i type="int" name="IRESTART">     0</i>
   <i type="int" name="NREBOOT">     0</i>
   <i type="int" name="NMIN">     0</i>
   <i name="EREF">      0.00000000</i>
   <separator name="electronic smearing" >
    <i type="int" name="ISMEAR">     0</i>
    <i name="SIGMA">      0.01000000</i>
    <i name="KSPACING">      0.50000000</i>
    <i type="logical" name="KGAMMA"> T  </i>
   </separator>
   <separator name="electronic projectors" >
    <i type="logical" name="LREAL"> T  </i>
    <v name="ROPT">     -0.00040000     -0.00040000     -0.00040000</v>
    <i type="int" name="LMAXPAW">  -100</i>
    <i type="int" name="LMAXMIX">     2</i>
    <i type="logical" name="NLSPLINE"> F  </i>
   </separator>
   <separator name="electronic startup" >
    <i type="int" name="ISTART">     1</i>
    <i type="int" name="ICHARG">    11</i>
    <i type="int" name="INIWAV">     1</i>
   </separator>
   <separator name="electronic spin" >
    <i type="int" name="ISPIN">     1</i>
    <i type="logical" name="LNONCOLLINEAR"> F  </i>
    <v name="MAGMOM">      1.00000000      1.00000000      1.00000000      1.00000000      1.00000000      1.00000000      1.00000000      1.00000000      1.00000000      1.00000000      1.00000000      1.00000000      1.00000000      1.00000000      1.00000000      1.00000000      1.00000000      1.00000000      1.00000000      1.00000000
      1.00000000      1.00000000      1.00000000      1.00000000      1.00000000      1.00000000      1.00000000      1.00000000      1.00000000      1.00000000      1.00000000      1.00000000      1.00000000      1.00000000      1.00000000      1.00000000      1.00000000      1.00000000      1.00000000      1.00000000
      1.00000000      1.00000000      1.00000000      1.00000000      1.00000000      1.00000000      1.00000000      1.00000000      1.00000000      1.00000000      1.00000000      1.00000000      1.00000000      1.00000000      1.00000000      1.00000000      1.00000000      1.00000000      1.00000000      1.00000000
      1.00000000      1.00000000      1.00000000      1.00000000      1.00000000      1.00000000      1.00000000      1.00000000      1.00000000      1.00000000      1.00000000      1.00000000</v>
    <i name="NUPDOWN">     -1.00000000</i>
    <i type="logical" name="LSORBIT"> F  </i>
    <v name="SAXIS">      0.00000000      0.00000000      1.00000000</v>
    <i type="logical" name="LSPIRAL"> F  </i>
    <v name="QSPIRAL">      0.00000000      0.00000000      0.00000000</v>
    <i type="logical" name="LZEROZ"> F  </i>
   </separator>
   <separator name="electronic exchange-correlation" >
    <i type="logical" name="LASPH"> F  </i>
    <i type="logical" name="LMETAGGA"> F  </i>
   </separator>
   <separator name="electronic convergence" >
    <i type="int" name="NELM">   200</i>
    <i type="int" name="NELMDL">     0</i>
    <i type="int" name="NELMIN">     2</i>
    <i name="ENINI">    500.00000000</i>
    <separator name="electronic convergence detail" >
     <i type="logical" name="LDIAG"> T  </i>
     <i type="logical" name="LSUBROT"> F  </i>
     <i name="WEIMIN">      0.00000000</i>
     <i name="EBREAK">      0.00000002</i>
     <i name="DEPER">      0.30000000</i>
     <i type="int" name="NRMM">     4</i>
     <i name="TIME">      0.40000000</i>
    </separator>
   </separator>
   <separator name="electronic mixer" >
    <i name="AMIX">      0.40000000</i>
    <i name="BMIX">      1.00000000</i>
    <i name="AMIN">      0.10000000</i>
    <i name="AMIX_MAG">      1.60000000</i>
    <i name="BMIX_MAG">      1.00000000</i>
    <separator name="electronic mixer details" >
     <i type="int" name="IMIX">     4</i>
     <i type="logical" name="MIXFIRST"> F  </i>
     <i type="int" name="MAXMIX">   -45</i>
     <i name="WC">    100.00000000</i>
     <i type="int" name="INIMIX">     1</i>
     <i type="int" name="MIXPRE">     1</i>
     <i type="int" name="MREMOVE">     5</i>
    </separator>
   </separator>
   <separator name="electronic dipolcorrection" >
    <i type="logical" name="LDIPOL"> F  </i>
    <i type="logical" name="LMONO"> F  </i>
    <i type="int" name="IDIPOL">     0</i>
    <i name="EPSILON">      1.00000000</i>
    <v name="DIPOL">   -100.00000000   -100.00000000   -100.00000000</v>
    <i name="EFIELD">      0.00000000</i>
   </separator>
  </separator>
  <separator name="grids" >
   <i type="int" name="NGX">   160</i>
   <i type="int" name="NGY">   160</i>
   <i type="int" name="NGZ">   150</i>
   <i type="int" name="NGXF">   240</i>
   <i type="int" name="NGYF">   240</i>
   <i type="int" name="NGZF">   224</i>
   <i type="logical" name="ADDGRID"> F  </i>
  </separator>
  <separator name="ionic" >
   <i type="int" name="NSW">     0</i>
   <i type="int" name="IBRION">    -1</i>
   <i type="int" name="MDALGO">     0</i>
   <i type="int" name="ISIF">     2</i>
   <i name="PSTRESS">      0.00000000</i>
   <i name="EDIFFG">     -0.01000000</i>
   <i type="int" name="NFREE">     0</i>
   <i name="POTIM">      0.30000000</i>
   <i name="SMASS">     -3.00000000</i>
   <i name="SCALEE">      1.00000000</i>
  </separator>
  <separator name="ionic md" >
   <i name="TEBEG">      0.00010000</i>
   <i name="TEEND">      0.00010000</i>
   <i type="int" name="NBLOCK">     1</i>
   <i type="int" name="KBLOCK">     1</i>
   <i type="int" name="NPACO">   256</i>
   <i name="APACO">     16.00000000</i>
  </separator>
  <separator name="symmetry" >
   <i type="int" name="ISYM">     2</i>
   <i name="SYMPREC">      0.00001000</i>
  </separator>
  <separator name="dos" >
   <i type="int" name="LORBIT">     0</i>
   <v name="RWIGS">     -1.00000000     -1.00000000     -1.00000000</v>
   <i type="int" name="NEDOS">   301</i>
   <i name="EMIN">     10.00000000</i>
   <i name="EMAX">    -10.00000000</i>
   <i name="EFERMI">      0.00000000</i>
  </separator>
  <separator name="writing" >
   <i type="int" name="NWRITE">     0</i>
   <i type="logical" name="LWAVE"> F  </i>
   <i type="logical" name="LDOWNSAMPLE"> F  </i>
   <i type="logical" name="LCHARG"> F  </i>
   <i type="logical" name="LPARD"> F  </i>
   <i type="logical" name="LVTOT"> F  </i>
   <i type="logical" name="LVHAR"> F  </i>
   <i type="logical" name="LELF"> F  </i>
   <i type="logical" name="LOPTICS"> F  </i>
   <v name="STM">      0.00000000      0.00000000      0.00000000      0.00000000      0.00000000      0.00000000      0.00000000</v>
  </separator>
  <separator name="performance" >
   <i type="int" name="NPAR">    16</i>
   <i type="int" name="NSIM">     4</i>
   <i type="int" name="NBLK">    -1</i>
   <i type="logical" name="LPLANE"> T  </i>
   <i type="logical" name="LSCALAPACK"> T  </i>
   <i type="logical" name="LSCAAWARE"> F  </i>
   <i type="logical" name="LSCALU"> F  </i>
   <i type="logical" name="LASYNC"> F  </i>
   <i type="logical" name="LORBITALREAL"> F  </i>
  </separator>
  <separator name="miscellaneous" >
   <i type="int" name="IDIOT">     3</i>
   <i type="int" name="ISPECIAL">     0</i>
   <i type="logical" name="LMUSIC"> F  </i>
   <v name="POMASS">     12.01100000      1.00000000     14.00100000</v>
   <v name="DARWINR">      0.00000000      0.00000000      0.00000000</v>
   <v name="DARWINV">      1.00000000      1.00000000      1.00000000</v>
   <i type="logical" name="LCORR"> T  </i>
  </separator>
  <i type="logical" name="GGA_COMPAT"> T  </i>
  <i type="logical" name="LBERRY"> F  </i>
  <i type="int" name="ICORELEVEL">     0</i>
  <i type="logical" name="LDAU"> F  </i>
  <i type="int" name="I_CONSTRAINED_M">     0</i>
  <separator name="electronic exchange-correlation" >
   <i type="string" name="GGA">PE</i>
   <i type="int" name="VOSKOWN">     0</i>
   <i type="logical" name="LHFCALC"> F  </i>
   <i type="string" name="PRECFOCK"></i>
   <i type="logical" name="LSYMGRAD"> F  </i>
   <i type="logical" name="LHFONE"> F  </i>
   <i type="logical" name="LRHFCALC"> F  </i>
   <i type="logical" name="LTHOMAS"> F  </i>
   <i type="logical" name="LMODELHF"> F  </i>
   <i name="ENCUT4O">     -1.00000000</i>
   <i type="int" name="EXXOEP">     0</i>
   <i type="int" name="FOURORBIT">     0</i>
   <i name="AEXX">      0.00000000</i>
   <i name="HFALPHA">      0.00000000</i>
   <i name="MCALPHA">      0.00000000</i>
   <i name="ALDAX">      1.00000000</i>
   <i name="AGGAX">      1.00000000</i>
   <i name="ALDAC">      1.00000000</i>
   <i name="AGGAC">      1.00000000</i>
   <i type="int" name="NKREDX">     1</i>
   <i type="int" name="NKREDY">     1</i>
   <i type="int" name="NKREDZ">     1</i>
   <i type="logical" name="SHIFTRED"> F  </i>
   <i type="logical" name="ODDONLY"> F  </i>
   <i type="logical" name="EVENONLY"> F  </i>
   <i type="int" name="LMAXFOCK">     0</i>
   <i type="int" name="NMAXFOCKAE">     0</i>
   <i type="logical" name="LFOCKAEDFT"> F  </i>
   <i name="HFSCREEN">      0.00000000</i>
   <i name="HFSCREENC">      0.00000000</i>
   <i type="int" name="NBANDSGWLOW">     0</i>
  </separator>
  <separator name="vdW DFT" >
   <i type="logical" name="LUSE_VDW"> F  </i>
   <i name="Zab_VDW">     -0.84910000</i>
   <i name="PARAM1">      0.12340000</i>
   <i name="PARAM2">      1.00000000</i>
   <i name="PARAM3">      0.00000000</i>
  </separator>
  <separator name="model GW" >
   <i type="int" name="MODEL_GW">     0</i>
   <i name="MODEL_EPS0">     68.30178653</i>
   <i name="MODEL_ALPHA">      1.00000000</i>
  </separator>
  <separator name="linear response parameters" >
   <i type="logical" name="LEPSILON"> F  </i>
   <i type="logical" name="LRPA"> F  </i>
   <i type="logical" name="LNABLA"> F  </i>
   <i type="logical" name="LVEL"> F  </i>
   <i type="int" name="KINTER">     0</i>
   <i name="CSHIFT">      0.10000000</i>
   <i name="OMEGAMAX">     -1.00000000</i>
   <i name="DEG_THRESHOLD">      0.00200000</i>
   <i name="RTIME">     -0.10000000</i>
   <i name="WPLASMAI">      0.00000000</i>
   <v name="DFIELD">      0.00000000      0.00000000      0.00000000</v>
   <v name="WPLASMA">      0.00000000      0.00000000      0.00000000      0.00000000      0.00000000      0.00000000      0.00000000      0.00000000      0.00000000</v>
  </separator>
  <separator name="orbital magnetization" >
   <i type="logical" name="NUCIND"> F  </i>
   <v name="MAGPOS">      0.00000000      0.00000000      0.00000000</v>
   <i type="logical" name="LNICSALL"> T  </i>
   <i type="logical" name="ORBITALMAG"> F  </i>
   <i type="logical" name="LMAGBLOCH"> F  </i>
   <i type="logical" name="LCHIMAG"> F  </i>
   <i type="logical" name="LGAUGE"> T  </i>
   <i type="int" name="MAGATOM">     0</i>
   <v name="MAGDIPOL">      0.00000000      0.00000000      0.00000000</v>
   <v name="AVECCONST">      0.00000000      0.00000000      0.00000000</v>
  </separator>
  <separator name="response functions" >
   <i type="logical" name="LADDER"> F  </i>
   <i type="logical" name="LRPAFORCE"> F  </i>
   <i type="logical" name="LFXC"> F  </i>
   <i type="logical" name="LHARTREE"> T  </i>
   <i type="int" name="IBSE">     0</i>
   <v type="int" name="KPOINT">    -1     0     0     0</v>
   <i type="logical" name="LTCTE"> F  </i>
   <i type="logical" name="LTETE"> F  </i>
   <i type="logical" name="LTRIPLET"> F  </i>
   <i type="logical" name="LFXCEPS"> F  </i>
   <i type="logical" name="LFXHEG"> F  </i>
   <i type="int" name="NATURALO">     2</i>
   <i type="logical" name="L2ORDER"> F  </i>
   <i type="logical" name="LMP2LT"> F  </i>
   <i type="logical" name="LUSEW"> F  </i>
   <i name="ENCUTGW">     -2.00000000</i>
   <i name="ENCUTGWSOFT">     -2.00000000</i>
   <i name="ENCUTLF">     -1.00000000</i>
   <i type="int" name="LMAXMP2">    -1</i>
   <i name="SCISSOR">      0.00000000</i>
   <i type="int" name="NOMEGA">     0</i>
   <i type="int" name="NOMEGAR">     0</i>
   <i type="int" name="NBANDSGW">    -1</i>
   <i type="int" name="NBANDSO">    -1</i>
   <i type="int" name="NBANDSV">    -1</i>
   <i type="int" name="NELM">   200</i>
   <i type="int" name="NELMHF">     1</i>
   <i type="int" name="DIM">     3</i>
   <i type="int" name="ANTIRES">     0</i>
   <i name="OMEGAMAX">    -30.00000000</i>
   <i name="OMEGAMIN">    -30.00000000</i>
   <i name="OMEGATL">   -200.00000000</i>
   <i type="int" name="OMEGAGRID">   140</i>
   <i name="CSHIFT">     -0.10000000</i>
   <i type="logical" name="SELFENERGY"> F  </i>
   <i type="logical" name="LSPECTRAL"> F  </i>
   <i type="logical" name="LSPECTRALGW"> F  </i>
   <i type="logical" name="LSINGLES"> F  </i>
   <i type="logical" name="LFERMIGW"> F  </i>
   <i type="logical" name="ODDONLYGW"> F  </i>
   <i type="logical" name="EVENONLYGW"> F  </i>
   <i type="int" name="NKREDLFX">     1</i>
   <i type="int" name="NKREDLFY">     1</i>
   <i type="int" name="NKREDLFZ">     1</i>
   <i type="int" name="MAXMEM">  2800</i>
   <i type="int" name="TELESCOPE">     0</i>
   <i type="int" name="TAUPAR">     1</i>
   <i type="int" name="OMEGAPAR">    -1</i>
   <i name="LAMBDA">      1.00000000</i>
  </separator>
  <separator name="External order field" >
   <i name="OFIELD_KAPPA">      0.00000000</i>
   <v name="OFIELD_K">      0.00000000      0.00000000      0.00000000</v>
   <i name="OFIELD_Q6_NEAR">      0.00000000</i>
   <i name="OFIELD_Q6_FAR">      0.00000000</i>
   <i name="OFIELD_A">      0.00000000</i>
  </separator>
  <separator name="solvation model" >
   <i type="logical" name="LSOL"> F  </i>
  </separator>
 </parameters>
 <atominfo>
  <atoms>      72 </atoms>
  <types>       3 </types>
  <array name="atoms" >
   <dimension dim="1">ion</dimension>
   <field type="string">element</field>
   <field type="int">atomtype</field>
   <set>
    <rc><c>C </c><c>   1</c></rc>
    <rc><c>C </c><c>   1</c></rc>
    <rc><c>C </c><c>   1</c></rc>
    <rc><c>C </c><c>   1</c></rc>
    <rc><c>C </c><c>   1</c></rc>
    <rc><c>C </c><c>   1</c></rc>
    <rc><c>C </c><c>   1</c></rc>
    <rc><c>C </c><c>   1</c></rc>
    <rc><c>C </c><c>   1</c></rc>
    <rc><c>C </c><c>   1</c></rc>
    <rc><c>C </c><c>   1</c></rc>
    <rc><c>C </c><c>   1</c></rc>
    <rc><c>C </c><c>   1</c></rc>
    <rc><c>C </c><c>   1</c></rc>
    <rc><c>C </c><c>   1</c></rc>
    <rc><c>C </c><c>   1</c></rc>
    <rc><c>C </c><c>   1</c></rc>
    <rc><c>C </c><c>   1</c></rc>
    <rc><c>C </c><c>   1</c></rc>
    <rc><c>C </c><c>   1</c></rc>
    <rc><c>C </c><c>   1</c></rc>
    <rc><c>C </c><c>   1</c></rc>
    <rc><c>C </c><c>   1</c></rc>
    <rc><c>C </c><c>   1</c></rc>
    <rc><c>C </c><c>   1</c></rc>
    <rc><c>C </c><c>   1</c></rc>
    <rc><c>C </c><c>   1</c></rc>
    <rc><c>C </c><c>   1</c></rc>
    <rc><c>C </c><c>   1</c></rc>
    <rc><c>C </c><c>   1</c></rc>
    <rc><c>H </c><c>   2</c></rc>
    <rc><c>H </c><c>   2</c></rc>
    <rc><c>H </c><c>   2</c></rc>
    <rc><c>H </c><c>   2</c></rc>
    <rc><c>H </c><c>   2</c></rc>
    <rc><c>H </c><c>   2</c></rc>
    <rc><c>H </c><c>   2</c></rc>
    <rc><c>H </c><c>   2</c></rc>
    <rc><c>H </c><c>   2</c></rc>
    <rc><c>H </c><c>   2</c></rc>
    <rc><c>H </c><c>   2</c></rc>
    <rc><c>H </c><c>   2</c></rc>
    <rc><c>H </c><c>   2</c></rc>
    <rc><c>H </c><c>   2</c></rc>
    <rc><c>H </c><c>   2</c></rc>
    <rc><c>H </c><c>   2</c></rc>
    <rc><c>H </c><c>   2</c></rc>
    <rc><c>H </c><c>   2</c></rc>
    <rc><c>H </c><c>   2</c></rc>
    <rc><c>H </c><c>   2</c></rc>
    <rc><c>H </c><c>   2</c></rc>
    <rc><c>H </c><c>   2</c></rc>
    <rc><c>H </c><c>   2</c></rc>
    <rc><c>H </c><c>   2</c></rc>
    <rc><c>H </c><c>   2</c></rc>
    <rc><c>H </c><c>   2</c></rc>
    <rc><c>H </c><c>   2</c></rc>
    <rc><c>H </c><c>   2</c></rc>
    <rc><c>H </c><c>   2</c></rc>
    <rc><c>H </c><c>   2</c></rc>
    <rc><c>N </c><c>   3</c></rc>
    <rc><c>N </c><c>   3</c></rc>
    <rc><c>N </c><c>   3</c></rc>
    <rc><c>N </c><c>   3</c></rc>
    <rc><c>N </c><c>   3</c></rc>
    <rc><c>N </c><c>   3</c></rc>
    <rc><c>N </c><c>   3</c></rc>
    <rc><c>N </c><c>   3</c></rc>
    <rc><c>N </c><c>   3</c></rc>
    <rc><c>N </c><c>   3</c></rc>
    <rc><c>N </c><c>   3</c></rc>
    <rc><c>N </c><c>   3</c></rc>
   </set>
  </array>
  <array name="atomtypes" >
   <dimension dim="1">type</dimension>
   <field type="int">atomspertype</field>
   <field type="string">element</field>
   <field>mass</field>
   <field>valence</field>
   <field type="string">pseudopotential</field>
   <set>
    <rc><c>  30</c><c>C </c><c>     12.01100000</c><c>      4.00000000</c><c>  PAW_PBE C 08Apr2002                   </c></rc>
    <rc><c>  30</c><c>H </c><c>      1.00000000</c><c>      1.00000000</c><c>  PAW_PBE H 15Jun2001                   </c></rc>
    <rc><c>  12</c><c>N </c><c>     14.00100000</c><c>      5.00000000</c><c>  PAW_PBE N 08Apr2002                   </c></rc>
   </set>
  </array>
 </atominfo>
 <structure name="initialpos" >
  <crystal>
   <varray name="basis" >
    <v>      21.79081806      -0.03056468       0.00000000 </v>
    <v>     -10.92184548      18.82189741       0.00000000 </v>
    <v>       0.00000000       0.00000000      20.00000000 </v>
   </varray>
   <i name="volume">   8196.21438381 </i>
   <varray name="rec_basis" >
    <v>       0.04592827       0.02665095       0.00000000 </v>
    <v>       0.00007458       0.05317288       0.00000000 </v>
    <v>       0.00000000       0.00000000       0.05000000 </v>
   </varray>
  </crystal>
  <varray name="positions" >
   <v>       0.38097808       0.64992318       0.45989655 </v>
   <v>       0.34549351       0.73151174       0.46063562 </v>
   <v>       0.26369272       0.61398851       0.45975646 </v>
   <v>       0.18792310       0.55417303       0.46132217 </v>
   <v>       0.44062060       0.63412066       0.46170517 </v>
   <v>       0.61264278       0.34751840       0.53546214 </v>
   <v>       0.64892416       0.26658264       0.53809052 </v>
   <v>       0.73010891       0.38432503       0.53704926 </v>
   <v>       0.80566015       0.44459626       0.53510687 </v>
   <v>       0.55276250       0.36286859       0.53190659 </v>
   <v>       0.45594370       0.02994759       0.51012645 </v>
   <v>       0.42453877       0.95935723       0.48956801 </v>
   <v>       0.52941350       0.07117296       0.52181122 </v>
   <v>       0.56955301       0.54030044       0.50441309 </v>
   <v>       0.53002265       0.57144167       0.48502311 </v>
   <v>       0.53726117       0.46674902       0.51604862 </v>
   <v>       0.96521204       0.42680439       0.50794612 </v>
   <v>       0.03566668       0.46562112       0.48709473 </v>
   <v>       0.92493528       0.45980476       0.51992763 </v>
   <v>       0.36143183       0.80715713       0.46331943 </v>
   <v>       0.63342628       0.19101746       0.53730220 </v>
   <v>       0.46563188       0.92670111       0.47973153 </v>
   <v>       0.53910556       0.96790094       0.49146059 </v>
   <v>       0.57050084       0.03850371       0.51203345 </v>
   <v>       0.45590835       0.53005458       0.47637466 </v>
   <v>       0.42362271       0.45648808       0.48791214 </v>
   <v>       0.46316782       0.42532635       0.50726245 </v>
   <v>       0.06910739       0.53968328       0.47731114 </v>
   <v>       0.02886045       0.57270097       0.48938576 </v>
   <v>       0.95839181       0.53388364       0.51021301 </v>
   <v>       0.33857394       0.81299538       0.51099926 </v>
   <v>       0.18103993       0.52492682       0.50891165 </v>
   <v>       0.46988217       0.65687959       0.50922243 </v>
   <v>       0.66517370       0.18547256       0.57752681 </v>
   <v>       0.81175283       0.48284856       0.57465627 </v>
   <v>       0.51438878       0.33166263       0.57177595 </v>
   <v>       0.36744580       0.92986147       0.48049568 </v>
   <v>       0.42272127       0.05385394       0.51724339 </v>
   <v>       0.52860535       0.16430678       0.53731591 </v>
   <v>       0.55764864       0.62859925       0.47593452 </v>
   <v>       0.62693752       0.57378638       0.51073095 </v>
   <v>       0.63157610       0.46798373       0.53112536 </v>
   <v>       0.06441564       0.43748098       0.47764327 </v>
   <v>       0.94065849       0.36940337       0.51501876 </v>
   <v>       0.83158890       0.36597494       0.53704719 </v>
   <v>       0.33015404       0.81392017       0.42338414 </v>
   <v>       0.18143444       0.51626741       0.42128451 </v>
   <v>       0.47846105       0.66559604       0.42156774 </v>
   <v>       0.65596614       0.18413812       0.48987413 </v>
   <v>       0.81230700       0.47320305       0.48716941 </v>
   <v>       0.52422025       0.33953730       0.48417425 </v>
   <v>       0.57232202       0.94398124       0.48439728 </v>
   <v>       0.62757695       0.06795905       0.52119920 </v>
   <v>       0.46626987       0.83348011       0.46314020 </v>
   <v>       0.36622496       0.42301958       0.48165296 </v>
   <v>       0.43557199       0.36816230       0.51630585 </v>
   <v>       0.36165566       0.52899921       0.46175531 </v>
   <v>       0.05344928       0.63011376       0.48241851 </v>
   <v>       0.92964204       0.56201604       0.51972781 </v>
   <v>       0.16283917       0.63339610       0.46115833 </v>
   <v>       0.39959804       0.71914331       0.46024997 </v>
   <v>       0.27630864       0.68070226       0.46018454 </v>
   <v>       0.31426158       0.59558547       0.45944135 </v>
   <v>       0.59448595       0.27845627       0.53677387 </v>
   <v>       0.71796385       0.31777964       0.53858571 </v>
   <v>       0.67919385       0.40219732       0.53571225 </v>
   <v>       0.55881213       0.14118589       0.54376428 </v>
   <v>       0.57806482       0.43760702       0.53712597 </v>
   <v>       0.85505516       0.41967635       0.54209513 </v>
   <v>       0.43611862       0.85675941       0.45769558 </v>
   <v>       0.41514719       0.55940054       0.45564312 </v>
   <v>       0.13897402       0.57978016       0.45501384 </v>
  </varray>
 </structure>
 <calculation>
  <scstep>
   <time name="dav">  172.16  173.66</time>
   <time name="total">  172.32  173.82</time>
   <energy>
    <i name="alphaZ">     24.28351646 </i>
    <i name="ewald">  22078.77301326 </i>
    <i name="hartreedc"> -28591.28934409 </i>
    <i name="XCdc">    742.23091229 </i>
    <i name="pawpsdc">  19263.66651615 </i>
    <i name="pawaedc"> -19302.21305333 </i>
    <i name="eentropy">     -0.00000000 </i>
    <i name="bandstr">  -2657.34207977 </i>
    <i name="atom">   7963.46374004 </i>
    <i name="e_fr_energy">   -478.42677899 </i>
    <i name="e_wo_entrp">   -478.42677899 </i>
    <i name="e_0_energy">   -478.42677899 </i>
   </energy>
  </scstep>
  <scstep>
   <time name="dav">  202.26  204.02</time>
   <time name="total">  202.27  204.04</time>
   <energy>
    <i name="e_fr_energy">   -479.14380076 </i>
    <i name="e_wo_entrp">   -479.14380076 </i>
    <i name="e_0_energy">   -479.14380076 </i>
   </energy>
  </scstep>
  <scstep>
   <time name="dav">  211.70  213.55</time>
   <time name="total">  211.71  213.56</time>
   <energy>
    <i name="e_fr_energy">   -479.16032876 </i>
    <i name="e_wo_entrp">   -479.16032876 </i>
    <i name="e_0_energy">   -479.16032876 </i>
   </energy>
  </scstep>
  <scstep>
   <time name="dav">  200.33  202.08</time>
   <time name="total">  200.34  202.09</time>
   <energy>
    <i name="e_fr_energy">   -479.16070427 </i>
    <i name="e_wo_entrp">   -479.16070427 </i>
    <i name="e_0_energy">   -479.16070427 </i>
   </energy>
  </scstep>
  <scstep>
   <time name="dav">  193.86  195.60</time>
   <time name="total">  193.87  195.61</time>
   <energy>
    <i name="e_fr_energy">   -479.16072146 </i>
    <i name="e_wo_entrp">   -479.16072146 </i>
    <i name="e_0_energy">   -479.16072146 </i>
   </energy>
  </scstep>
  <scstep>
   <time name="dav">  161.96  163.38</time>
   <time name="total">  161.97  163.39</time>
   <energy>
    <i name="alphaZ">     24.28351646 </i>
    <i name="ewald">  22078.77301326 </i>
    <i name="hartreedc"> -28591.28934409 </i>
    <i name="XCdc">    742.23091229 </i>
    <i name="pawpsdc">  19263.66651615 </i>
    <i name="pawaedc"> -19302.21305333 </i>
    <i name="eentropy">     -0.00000000 </i>
    <i name="bandstr">  -2658.07602308 </i>
    <i name="atom">   7963.46374004 </i>
    <i name="e_fr_energy">   -479.16072231 </i>
    <i name="e_wo_entrp">   -479.16072231 </i>
    <i name="e_0_energy">   -479.16072231 </i>
   </energy>
  </scstep>
  <structure>
   <crystal>
    <varray name="basis" >
     <v>      21.79081806      -0.03056468       0.00000000 </v>
     <v>     -10.92184548      18.82189741       0.00000000 </v>
     <v>       0.00000000       0.00000000      20.00000000 </v>
    </varray>
    <i name="volume">   8196.21438381 </i>
    <varray name="rec_basis" >
     <v>       0.04592827       0.02665095       0.00000000 </v>
     <v>       0.00007458       0.05317288       0.00000000 </v>
     <v>       0.00000000       0.00000000       0.05000000 </v>
    </varray>
   </crystal>
   <varray name="positions" >
    <v>       0.38097808       0.64992318       0.45989655 </v>
    <v>       0.34549351       0.73151174       0.46063562 </v>
    <v>       0.26369272       0.61398851       0.45975646 </v>
    <v>       0.18792310       0.55417303       0.46132217 </v>
    <v>       0.44062060       0.63412066       0.46170517 </v>
    <v>       0.61264278       0.34751840       0.53546214 </v>
    <v>       0.64892416       0.26658264       0.53809052 </v>
    <v>       0.73010891       0.38432503       0.53704926 </v>
    <v>       0.80566015       0.44459626       0.53510687 </v>
    <v>       0.55276250       0.36286859       0.53190659 </v>
    <v>       0.45594370       0.02994759       0.51012645 </v>
    <v>       0.42453877       0.95935723       0.48956801 </v>
    <v>       0.52941350       0.07117296       0.52181122 </v>
    <v>       0.56955301       0.54030044       0.50441309 </v>
    <v>       0.53002265       0.57144167       0.48502311 </v>
    <v>       0.53726117       0.46674902       0.51604862 </v>
    <v>       0.96521204       0.42680439       0.50794612 </v>
    <v>       0.03566668       0.46562112       0.48709473 </v>
    <v>       0.92493528       0.45980476       0.51992763 </v>
    <v>       0.36143183       0.80715713       0.46331943 </v>
    <v>       0.63342628       0.19101746       0.53730220 </v>
    <v>       0.46563188       0.92670111       0.47973153 </v>
    <v>       0.53910556       0.96790094       0.49146059 </v>
    <v>       0.57050084       0.03850371       0.51203345 </v>
    <v>       0.45590835       0.53005458       0.47637466 </v>
    <v>       0.42362271       0.45648808       0.48791214 </v>
    <v>       0.46316782       0.42532635       0.50726245 </v>
    <v>       0.06910739       0.53968328       0.47731114 </v>
    <v>       0.02886045       0.57270097       0.48938576 </v>
    <v>       0.95839181       0.53388364       0.51021301 </v>
    <v>       0.33857394       0.81299538       0.51099926 </v>
    <v>       0.18103993       0.52492682       0.50891165 </v>
    <v>       0.46988217       0.65687959       0.50922243 </v>
    <v>       0.66517370       0.18547256       0.57752681 </v>
    <v>       0.81175283       0.48284856       0.57465627 </v>
    <v>       0.51438878       0.33166263       0.57177595 </v>
    <v>       0.36744580       0.92986147       0.48049568 </v>
    <v>       0.42272127       0.05385394       0.51724339 </v>
    <v>       0.52860535       0.16430678       0.53731591 </v>
    <v>       0.55764864       0.62859925       0.47593452 </v>
    <v>       0.62693752       0.57378638       0.51073095 </v>
    <v>       0.63157610       0.46798373       0.53112536 </v>
    <v>       0.06441564       0.43748098       0.47764327 </v>
    <v>       0.94065849       0.36940337       0.51501876 </v>
    <v>       0.83158890       0.36597494       0.53704719 </v>
    <v>       0.33015404       0.81392017       0.42338414 </v>
    <v>       0.18143444       0.51626741       0.42128451 </v>
    <v>       0.47846105       0.66559604       0.42156774 </v>
    <v>       0.65596614       0.18413812       0.48987413 </v>
    <v>       0.81230700       0.47320305       0.48716941 </v>
    <v>       0.52422025       0.33953730       0.48417425 </v>
    <v>       0.57232202       0.94398124       0.48439728 </v>
    <v>       0.62757695       0.06795905       0.52119920 </v>
    <v>       0.46626987       0.83348011       0.46314020 </v>
    <v>       0.36622496       0.42301958       0.48165296 </v>
    <v>       0.43557199       0.36816230       0.51630585 </v>
    <v>       0.36165566       0.52899921       0.46175531 </v>
    <v>       0.05344928       0.63011376       0.48241851 </v>
    <v>       0.92964204       0.56201604       0.51972781 </v>
    <v>       0.16283917       0.63339610       0.46115833 </v>
    <v>       0.39959804       0.71914331       0.46024997 </v>
    <v>       0.27630864       0.68070226       0.46018454 </v>
    <v>       0.31426158       0.59558547       0.45944135 </v>
    <v>       0.59448595       0.27845627       0.53677387 </v>
    <v>       0.71796385       0.31777964       0.53858571 </v>
    <v>       0.67919385       0.40219732       0.53571225 </v>
    <v>       0.55881213       0.14118589       0.54376428 </v>
    <v>       0.57806482       0.43760702       0.53712597 </v>
    <v>       0.85505516       0.41967635       0.54209513 </v>
    <v>       0.43611862       0.85675941       0.45769558 </v>
    <v>       0.41514719       0.55940054       0.45564312 </v>
    <v>       0.13897402       0.57978016       0.45501384 </v>
   </varray>
  </structure>
  <varray name="forces" >
   <v>      -0.00446077      -0.00260792       0.00086672 </v>
   <v>      -0.00323430      -0.00074512      -0.00011831 </v>
   <v>      -0.00003092      -0.00171194       0.00068285 </v>
   <v>      -0.00046710       0.00300343       0.00264982 </v>
   <v>      -0.00227713       0.00248650      -0.00088002 </v>
   <v>       0.00184296       0.00297122      -0.00030643 </v>
   <v>      -0.00674052      -0.00352332       0.00059604 </v>
   <v>      -0.00153299      -0.00169184      -0.00013435 </v>
   <v>      -0.00003481      -0.00509109      -0.00099708 </v>
   <v>       0.00057288       0.00058254       0.00089786 </v>
   <v>      -0.00223677      -0.00033141       0.00037302 </v>
   <v>       0.00183528      -0.00300805       0.00162830 </v>
   <v>       0.00290239      -0.00232749      -0.00163937 </v>
   <v>      -0.00194041      -0.00087127       0.00018682 </v>
   <v>       0.00033133       0.00535283      -0.00058778 </v>
   <v>       0.00224730       0.00060775       0.00104069 </v>
   <v>       0.00038811      -0.00065390      -0.00043181 </v>
   <v>      -0.00112321      -0.00286007       0.00179448 </v>
   <v>      -0.00226936      -0.00089460      -0.00011786 </v>
   <v>       0.00585806      -0.00057192       0.00137309 </v>
   <v>      -0.00075883      -0.00011464       0.00174579 </v>
   <v>       0.00211064      -0.00284646      -0.00025448 </v>
   <v>       0.00072811       0.00090919       0.00191725 </v>
   <v>      -0.00413963       0.00111752       0.00034546 </v>
   <v>      -0.00167989      -0.00227308       0.00013507 </v>
   <v>       0.00210722       0.00223294      -0.00044655 </v>
   <v>      -0.00106358       0.00027219      -0.00115882 </v>
   <v>       0.00122071       0.00205924       0.00110148 </v>
   <v>      -0.00209237      -0.00388981      -0.00019020 </v>
   <v>       0.00301760       0.00233213      -0.00396392 </v>
   <v>      -0.00352932       0.00113816      -0.00087345 </v>
   <v>      -0.00021214      -0.00117438      -0.00110378 </v>
   <v>       0.00059541       0.00278412      -0.00178208 </v>
   <v>      -0.00187276      -0.00150799       0.00074339 </v>
   <v>       0.00109208      -0.00306744       0.00220001 </v>
   <v>       0.00006851       0.00357807       0.00266398 </v>
   <v>       0.00174604       0.00048727      -0.00150556 </v>
   <v>       0.00222817      -0.00146293      -0.00000110 </v>
   <v>      -0.00068629       0.00070359       0.00230804 </v>
   <v>      -0.00174062      -0.00230587       0.00078696 </v>
   <v>       0.00013206       0.00070069      -0.00019449 </v>
   <v>      -0.00335429       0.00237725      -0.00004654 </v>
   <v>      -0.00243264      -0.00061459       0.00255528 </v>
   <v>      -0.00048639       0.00201051      -0.00095592 </v>
   <v>      -0.00118977      -0.00150764       0.00039093 </v>
   <v>       0.00425338       0.00316954      -0.00048355 </v>
   <v>       0.00158844      -0.00009344      -0.00317168 </v>
   <v>      -0.00157428       0.00119737       0.00020798 </v>
   <v>       0.00169464      -0.00112756       0.00085509 </v>
   <v>      -0.00148822      -0.00041507       0.00238622 </v>
   <v>       0.00012297       0.00346193       0.00290339 </v>
   <v>      -0.00198636       0.00132167      -0.00300085 </v>
   <v>      -0.00180958       0.00141771      -0.00012740 </v>
   <v>       0.00511796      -0.00509691       0.00246953 </v>
   <v>       0.00331162       0.00011943      -0.00159096 </v>
   <v>       0.00223409      -0.00086848      -0.00222593 </v>
   <v>      -0.00043405       0.00252977       0.00004423 </v>
   <v>      -0.00145401       0.00035017      -0.00302318 </v>
   <v>       0.00119293      -0.00142857      -0.00486700 </v>
   <v>      -0.00009308      -0.00165106      -0.00278267 </v>
   <v>      -0.00143973      -0.00223061      -0.00018309 </v>
   <v>       0.00293157       0.00026619       0.00013068 </v>
   <v>       0.00265911       0.00592468       0.00218230 </v>
   <v>       0.00545830       0.00090856      -0.00233380 </v>
   <v>      -0.00010353       0.00429241       0.00112672 </v>
   <v>       0.00410984      -0.00428429       0.00130331 </v>
   <v>      -0.00007562       0.00210920      -0.00257574 </v>
   <v>      -0.00086982       0.00468090      -0.00269304 </v>
   <v>      -0.00098600      -0.00371816      -0.00222288 </v>
   <v>      -0.00500723       0.00553646       0.00062624 </v>
   <v>       0.00027845       0.00006707       0.00103542 </v>
   <v>       0.00293015      -0.00649125       0.00471723 </v>
  </varray>
  <varray name="stress" >
   <v>       0.00261783      -0.00109633      -0.00127218 </v>
   <v>      -0.00109633      -0.00246479      -0.00267355 </v>
   <v>      -0.00127218      -0.00267355      -0.20637035 </v>
  </varray>
  <energy>
   <i name="e_fr_energy">   -480.40477328 </i>
   <i name="e_wo_entrp">   -480.40477328 </i>
   <i name="e_0_energy">     -0.00000000 </i>
  </energy>
  <time name="totalsc"> 1292.71 1304.33</time>
  <eigenvalues>
   <array>
    <dimension dim="1">band</dimension>
    <dimension dim="2">kpoint</dimension>
    <dimension dim="3">spin</dimension>
    <field>eigene</field>
    <field>occ</field>
    <set>
     <set comment="spin 1">
      <set comment="kpoint 1">
       <r>  -25.8054    1.0000 </r>
       <r>  -25.8028    1.0000 </r>
       <r>  -23.3492    1.0000 </r>
       <r>  -23.3457    1.0000 </r>
       <r>  -23.2995    1.0000 </r>
       <r>  -23.2960    1.0000 </r>
       <r>  -23.0011    1.0000 </r>
       <r>  -22.8871    1.0000 </r>
       <r>  -22.4349    1.0000 </r>
       <r>  -22.4341    1.0000 </r>
       <r>  -22.3585    1.0000 </r>
       <r>  -22.3573    1.0000 </r>
       <r>  -20.2983    1.0000 </r>
       <r>  -20.2978    1.0000 </r>
       <r>  -20.2773    1.0000 </r>
       <r>  -18.8741    1.0000 </r>
       <r>  -18.8722    1.0000 </r>
       <r>  -18.4139    1.0000 </r>
       <r>  -18.2923    1.0000 </r>
       <r>  -18.2901    1.0000 </r>
       <r>  -17.8952    1.0000 </r>
       <r>  -17.8944    1.0000 </r>
       <r>  -17.8695    1.0000 </r>
       <r>  -17.5033    1.0000 </r>
       <r>  -16.8707    1.0000 </r>
       <r>  -16.8667    1.0000 </r>
       <r>  -16.3371    1.0000 </r>
       <r>  -15.6682    1.0000 </r>
       <r>  -15.6654    1.0000 </r>
       <r>  -15.1389    1.0000 </r>
       <r>  -15.1364    1.0000 </r>
       <r>  -14.9583    1.0000 </r>
       <r>  -14.6105    1.0000 </r>
       <r>  -14.6082    1.0000 </r>
       <r>  -14.5354    1.0000 </r>
       <r>  -14.0313    1.0000 </r>
       <r>  -13.7977    1.0000 </r>
       <r>  -13.7956    1.0000 </r>
       <r>  -13.4845    1.0000 </r>
       <r>  -13.2190    1.0000 </r>
       <r>  -12.6884    1.0000 </r>
       <r>  -12.6844    1.0000 </r>
       <r>  -12.6566    1.0000 </r>
       <r>  -12.4702    1.0000 </r>
       <r>  -12.4616    1.0000 </r>
       <r>  -12.1702    1.0000 </r>
       <r>  -12.0738    1.0000 </r>
       <r>  -11.8691    1.0000 </r>
       <r>  -11.5939    1.0000 </r>
       <r>  -11.5902    1.0000 </r>
       <r>  -11.3882    1.0000 </r>
       <r>  -11.2958    1.0000 </r>
       <r>  -11.2894    1.0000 </r>
       <r>  -11.1137    1.0000 </r>
       <r>  -11.1086    1.0000 </r>
       <r>  -10.9324    1.0000 </r>
       <r>  -10.9251    1.0000 </r>
       <r>  -10.9071    1.0000 </r>
       <r>  -10.3713    1.0000 </r>
       <r>  -10.3703    1.0000 </r>
       <r>  -10.2411    1.0000 </r>
       <r>  -10.0744    1.0000 </r>
       <r>  -10.0115    1.0000 </r>
       <r>   -9.8956    1.0000 </r>
       <r>   -9.7218    1.0000 </r>
       <r>   -9.7201    1.0000 </r>
       <r>   -9.6082    1.0000 </r>
       <r>   -9.6016    1.0000 </r>
       <r>   -9.5995    1.0000 </r>
       <r>   -9.5426    1.0000 </r>
       <r>   -9.5393    1.0000 </r>
       <r>   -9.4821    1.0000 </r>
       <r>   -9.1971    1.0000 </r>
       <r>   -9.1961    1.0000 </r>
       <r>   -9.0655    1.0000 </r>
       <r>   -8.9140    1.0000 </r>
       <r>   -8.8639    1.0000 </r>
       <r>   -8.8606    1.0000 </r>
       <r>   -8.8232    1.0000 </r>
       <r>   -8.7921    1.0000 </r>
       <r>   -8.7910    1.0000 </r>
       <r>   -8.6078    1.0000 </r>
       <r>   -8.1068    1.0000 </r>
       <r>   -8.1054    1.0000 </r>
       <r>   -7.8144    1.0000 </r>
       <r>   -7.8131    1.0000 </r>
       <r>   -7.6210    1.0000 </r>
       <r>   -7.6205    1.0000 </r>
       <r>   -7.5874    1.0000 </r>
       <r>   -7.2869    1.0000 </r>
       <r>   -7.1800    1.0000 </r>
       <r>   -7.1757    1.0000 </r>
       <r>   -6.4068    1.0000 </r>
       <r>   -6.4043    1.0000 </r>
       <r>   -6.4011    1.0000 </r>
       <r>   -6.3991    1.0000 </r>
       <r>   -5.7276    1.0000 </r>
       <r>   -5.7274    1.0000 </r>
       <r>   -5.7263    1.0000 </r>
       <r>   -5.5698    1.0000 </r>
       <r>   -5.5673    1.0000 </r>
       <r>   -5.5598    1.0000 </r>
       <r>   -3.7604    1.0000 </r>
       <r>   -3.7562    1.0000 </r>
       <r>   -3.7372    1.0000 </r>
       <r>   -2.2904    0.0000 </r>
       <r>   -2.2900    0.0000 </r>
       <r>   -2.2438    0.0000 </r>
       <r>   -2.2420    0.0000 </r>
       <r>   -0.7077    0.0000 </r>
       <r>   -0.6763    0.0000 </r>
       <r>   -0.6752    0.0000 </r>
       <r>   -0.4366    0.0000 </r>
       <r>   -0.2747    0.0000 </r>
       <r>   -0.0847    0.0000 </r>
       <r>   -0.0835    0.0000 </r>
       <r>   -0.0350    0.0000 </r>
       <r>   -0.0323    0.0000 </r>
       <r>    0.0616    0.0000 </r>
       <r>    0.1014    0.0000 </r>
       <r>    0.1069    0.0000 </r>
       <r>    0.2717    0.0000 </r>
       <r>    0.2773    0.0000 </r>
       <r>    0.3988    0.0000 </r>
       <r>    0.5902    0.0000 </r>
       <r>    0.5914    0.0000 </r>
       <r>    0.5934    0.0000 </r>
       <r>    0.6559    0.0000 </r>
       <r>    0.7414    0.0000 </r>
       <r>    0.7428    0.0000 </r>
       <r>    0.8270    0.0000 </r>
       <r>    0.8355    0.0000 </r>
       <r>    0.8530    0.0000 </r>
       <r>    0.8559    0.0000 </r>
       <r>    0.8863    0.0000 </r>
       <r>    0.8901    0.0000 </r>
       <r>    0.8945    0.0000 </r>
       <r>    0.9099    0.0000 </r>
       <r>    0.9837    0.0000 </r>
       <r>    0.9848    0.0000 </r>
       <r>    1.0205    0.0000 </r>
       <r>    1.0611    0.0000 </r>
       <r>    1.1026    0.0000 </r>
       <r>    1.1074    0.0000 </r>
      </set>
      <set comment="kpoint 2">
       <r>  -25.8054    1.0000 </r>
       <r>  -25.8028    1.0000 </r>
       <r>  -23.3492    1.0000 </r>
       <r>  -23.3457    1.0000 </r>
       <r>  -23.2996    1.0000 </r>
       <r>  -23.2960    1.0000 </r>
       <r>  -23.0009    1.0000 </r>
       <r>  -22.8873    1.0000 </r>
       <r>  -22.4348    1.0000 </r>
       <r>  -22.4341    1.0000 </r>
       <r>  -22.3585    1.0000 </r>
       <r>  -22.3573    1.0000 </r>
       <r>  -20.2983    1.0000 </r>
       <r>  -20.2978    1.0000 </r>
       <r>  -20.2773    1.0000 </r>
       <r>  -18.8738    1.0000 </r>
       <r>  -18.8722    1.0000 </r>
       <r>  -18.4177    1.0000 </r>
       <r>  -18.2909    1.0000 </r>
       <r>  -18.2875    1.0000 </r>
       <r>  -17.8952    1.0000 </r>
       <r>  -17.8945    1.0000 </r>
       <r>  -17.8695    1.0000 </r>
       <r>  -17.5045    1.0000 </r>
       <r>  -16.8700    1.0000 </r>
       <r>  -16.8664    1.0000 </r>
       <r>  -16.3379    1.0000 </r>
       <r>  -15.6674    1.0000 </r>
       <r>  -15.6651    1.0000 </r>
       <r>  -15.1401    1.0000 </r>
       <r>  -15.1370    1.0000 </r>
       <r>  -14.9575    1.0000 </r>
       <r>  -14.6110    1.0000 </r>
       <r>  -14.6080    1.0000 </r>
       <r>  -14.5344    1.0000 </r>
       <r>  -14.0319    1.0000 </r>
       <r>  -13.7972    1.0000 </r>
       <r>  -13.7959    1.0000 </r>
       <r>  -13.4849    1.0000 </r>
       <r>  -13.2180    1.0000 </r>
       <r>  -12.6883    1.0000 </r>
       <r>  -12.6846    1.0000 </r>
       <r>  -12.6575    1.0000 </r>
       <r>  -12.4711    1.0000 </r>
       <r>  -12.4611    1.0000 </r>
       <r>  -12.1693    1.0000 </r>
       <r>  -12.0738    1.0000 </r>
       <r>  -11.8686    1.0000 </r>
       <r>  -11.5936    1.0000 </r>
       <r>  -11.5903    1.0000 </r>
       <r>  -11.3888    1.0000 </r>
       <r>  -11.2963    1.0000 </r>
       <r>  -11.2893    1.0000 </r>
       <r>  -11.1137    1.0000 </r>
       <r>  -11.1085    1.0000 </r>
       <r>  -10.9387    1.0000 </r>
       <r>  -10.9250    1.0000 </r>
       <r>  -10.9002    1.0000 </r>
       <r>  -10.3721    1.0000 </r>
       <r>  -10.3706    1.0000 </r>
       <r>  -10.2403    1.0000 </r>
       <r>  -10.0745    1.0000 </r>
       <r>  -10.0114    1.0000 </r>
       <r>   -9.8958    1.0000 </r>
       <r>   -9.7218    1.0000 </r>
       <r>   -9.7203    1.0000 </r>
       <r>   -9.6084    1.0000 </r>
       <r>   -9.6018    1.0000 </r>
       <r>   -9.5991    1.0000 </r>
       <r>   -9.5427    1.0000 </r>
       <r>   -9.5393    1.0000 </r>
       <r>   -9.4813    1.0000 </r>
       <r>   -9.1974    1.0000 </r>
       <r>   -9.1962    1.0000 </r>
       <r>   -9.0653    1.0000 </r>
       <r>   -8.9142    1.0000 </r>
       <r>   -8.8642    1.0000 </r>
       <r>   -8.8607    1.0000 </r>
       <r>   -8.8226    1.0000 </r>
       <r>   -8.7921    1.0000 </r>
       <r>   -8.7909    1.0000 </r>
       <r>   -8.6082    1.0000 </r>
       <r>   -8.1063    1.0000 </r>
       <r>   -8.1054    1.0000 </r>
       <r>   -7.8148    1.0000 </r>
       <r>   -7.8131    1.0000 </r>
       <r>   -7.6210    1.0000 </r>
       <r>   -7.6204    1.0000 </r>
       <r>   -7.5875    1.0000 </r>
       <r>   -7.2867    1.0000 </r>
       <r>   -7.1801    1.0000 </r>
       <r>   -7.1757    1.0000 </r>
       <r>   -6.4068    1.0000 </r>
       <r>   -6.4043    1.0000 </r>
       <r>   -6.4011    1.0000 </r>
       <r>   -6.3991    1.0000 </r>
       <r>   -5.7276    1.0000 </r>
       <r>   -5.7274    1.0000 </r>
       <r>   -5.7263    1.0000 </r>
       <r>   -5.5698    1.0000 </r>
       <r>   -5.5673    1.0000 </r>
       <r>   -5.5598    1.0000 </r>
       <r>   -3.7604    1.0000 </r>
       <r>   -3.7561    1.0000 </r>
       <r>   -3.7372    1.0000 </r>
       <r>   -2.2903    0.0000 </r>
       <r>   -2.2900    0.0000 </r>
       <r>   -2.2439    0.0000 </r>
       <r>   -2.2420    0.0000 </r>
       <r>   -0.7077    0.0000 </r>
       <r>   -0.6763    0.0000 </r>
       <r>   -0.6753    0.0000 </r>
       <r>   -0.4365    0.0000 </r>
       <r>   -0.2751    0.0000 </r>
       <r>   -0.0857    0.0000 </r>
       <r>   -0.0845    0.0000 </r>
       <r>   -0.0334    0.0000 </r>
       <r>   -0.0311    0.0000 </r>
       <r>    0.0618    0.0000 </r>
       <r>    0.1014    0.0000 </r>
       <r>    0.1068    0.0000 </r>
       <r>    0.2721    0.0000 </r>
       <r>    0.2774    0.0000 </r>
       <r>    0.3986    0.0000 </r>
       <r>    0.5875    0.0000 </r>
       <r>    0.5905    0.0000 </r>
       <r>    0.5915    0.0000 </r>
       <r>    0.6603    0.0000 </r>
       <r>    0.7416    0.0000 </r>
       <r>    0.7429    0.0000 </r>
       <r>    0.8239    0.0000 </r>
       <r>    0.8341    0.0000 </r>
       <r>    0.8493    0.0000 </r>
       <r>    0.8575    0.0000 </r>
       <r>    0.8815    0.0000 </r>
       <r>    0.8903    0.0000 </r>
       <r>    0.9037    0.0000 </r>
       <r>    0.9106    0.0000 </r>
       <r>    0.9835    0.0000 </r>
       <r>    0.9857    0.0000 </r>
       <r>    1.0226    0.0000 </r>
       <r>    1.0572    0.0000 </r>
       <r>    1.1079    0.0000 </r>
       <r>    1.1085    0.0000 </r>
      </set>
      <set comment="kpoint 3">
       <r>  -25.8054    1.0000 </r>
       <r>  -25.8028    1.0000 </r>
       <r>  -23.3490    1.0000 </r>
       <r>  -23.3457    1.0000 </r>
       <r>  -23.2999    1.0000 </r>
       <r>  -23.2960    1.0000 </r>
       <r>  -23.0004    1.0000 </r>
       <r>  -22.8878    1.0000 </r>
       <r>  -22.4346    1.0000 </r>
       <r>  -22.4338    1.0000 </r>
       <r>  -22.3588    1.0000 </r>
       <r>  -22.3574    1.0000 </r>
       <r>  -20.2982    1.0000 </r>
       <r>  -20.2978    1.0000 </r>
       <r>  -20.2774    1.0000 </r>
       <r>  -18.8727    1.0000 </r>
       <r>  -18.8721    1.0000 </r>
       <r>  -18.4277    1.0000 </r>
       <r>  -18.2907    1.0000 </r>
       <r>  -18.2770    1.0000 </r>
       <r>  -17.8952    1.0000 </r>
       <r>  -17.8945    1.0000 </r>
       <r>  -17.8693    1.0000 </r>
       <r>  -17.5081    1.0000 </r>
       <r>  -16.8687    1.0000 </r>
       <r>  -16.8644    1.0000 </r>
       <r>  -16.3405    1.0000 </r>
       <r>  -15.6656    1.0000 </r>
       <r>  -15.6638    1.0000 </r>
       <r>  -15.1439    1.0000 </r>
       <r>  -15.1386    1.0000 </r>
       <r>  -14.9551    1.0000 </r>
       <r>  -14.6124    1.0000 </r>
       <r>  -14.6075    1.0000 </r>
       <r>  -14.5315    1.0000 </r>
       <r>  -14.0335    1.0000 </r>
       <r>  -13.7970    1.0000 </r>
       <r>  -13.7956    1.0000 </r>
       <r>  -13.4860    1.0000 </r>
       <r>  -13.2152    1.0000 </r>
       <r>  -12.6881    1.0000 </r>
       <r>  -12.6852    1.0000 </r>
       <r>  -12.6603    1.0000 </r>
       <r>  -12.4739    1.0000 </r>
       <r>  -12.4596    1.0000 </r>
       <r>  -12.1664    1.0000 </r>
       <r>  -12.0738    1.0000 </r>
       <r>  -11.8670    1.0000 </r>
       <r>  -11.5928    1.0000 </r>
       <r>  -11.5906    1.0000 </r>
       <r>  -11.3906    1.0000 </r>
       <r>  -11.2980    1.0000 </r>
       <r>  -11.2888    1.0000 </r>
       <r>  -11.1134    1.0000 </r>
       <r>  -11.1085    1.0000 </r>
       <r>  -10.9501    1.0000 </r>
       <r>  -10.9248    1.0000 </r>
       <r>  -10.8870    1.0000 </r>
       <r>  -10.3751    1.0000 </r>
       <r>  -10.3707    1.0000 </r>
       <r>  -10.2379    1.0000 </r>
       <r>  -10.0747    1.0000 </r>
       <r>  -10.0112    1.0000 </r>
       <r>   -9.8965    1.0000 </r>
       <r>   -9.7220    1.0000 </r>
       <r>   -9.7210    1.0000 </r>
       <r>   -9.6091    1.0000 </r>
       <r>   -9.6023    1.0000 </r>
       <r>   -9.5980    1.0000 </r>
       <r>   -9.5430    1.0000 </r>
       <r>   -9.5392    1.0000 </r>
       <r>   -9.4789    1.0000 </r>
       <r>   -9.1984    1.0000 </r>
       <r>   -9.1966    1.0000 </r>
       <r>   -9.0644    1.0000 </r>
       <r>   -8.9148    1.0000 </r>
       <r>   -8.8651    1.0000 </r>
       <r>   -8.8607    1.0000 </r>
       <r>   -8.8210    1.0000 </r>
       <r>   -8.7922    1.0000 </r>
       <r>   -8.7907    1.0000 </r>
       <r>   -8.6096    1.0000 </r>
       <r>   -8.1054    1.0000 </r>
       <r>   -8.1046    1.0000 </r>
       <r>   -7.8161    1.0000 </r>
       <r>   -7.8131    1.0000 </r>
       <r>   -7.6209    1.0000 </r>
       <r>   -7.6203    1.0000 </r>
       <r>   -7.5876    1.0000 </r>
       <r>   -7.2860    1.0000 </r>
       <r>   -7.1805    1.0000 </r>
       <r>   -7.1758    1.0000 </r>
       <r>   -6.4069    1.0000 </r>
       <r>   -6.4044    1.0000 </r>
       <r>   -6.4009    1.0000 </r>
       <r>   -6.3991    1.0000 </r>
       <r>   -5.7277    1.0000 </r>
       <r>   -5.7274    1.0000 </r>
       <r>   -5.7263    1.0000 </r>
       <r>   -5.5698    1.0000 </r>
       <r>   -5.5672    1.0000 </r>
       <r>   -5.5598    1.0000 </r>
       <r>   -3.7604    1.0000 </r>
       <r>   -3.7560    1.0000 </r>
       <r>   -3.7373    1.0000 </r>
       <r>   -2.2901    0.0000 </r>
       <r>   -2.2898    0.0000 </r>
       <r>   -2.2441    0.0000 </r>
       <r>   -2.2422    0.0000 </r>
       <r>   -0.7076    0.0000 </r>
       <r>   -0.6763    0.0000 </r>
       <r>   -0.6754    0.0000 </r>
       <r>   -0.4359    0.0000 </r>
       <r>   -0.2762    0.0000 </r>
       <r>   -0.0888    0.0000 </r>
       <r>   -0.0869    0.0000 </r>
       <r>   -0.0293    0.0000 </r>
       <r>   -0.0277    0.0000 </r>
       <r>    0.0622    0.0000 </r>
       <r>    0.1014    0.0000 </r>
       <r>    0.1066    0.0000 </r>
       <r>    0.2734    0.0000 </r>
       <r>    0.2778    0.0000 </r>
       <r>    0.3978    0.0000 </r>
       <r>    0.5762    0.0000 </r>
       <r>    0.5875    0.0000 </r>
       <r>    0.5918    0.0000 </r>
       <r>    0.6704    0.0000 </r>
       <r>    0.7418    0.0000 </r>
       <r>    0.7439    0.0000 </r>
       <r>    0.8162    0.0000 </r>
       <r>    0.8300    0.0000 </r>
       <r>    0.8404    0.0000 </r>
       <r>    0.8612    0.0000 </r>
       <r>    0.8774    0.0000 </r>
       <r>    0.8918    0.0000 </r>
       <r>    0.9122    0.0000 </r>
       <r>    0.9181    0.0000 </r>
       <r>    0.9829    0.0000 </r>
       <r>    0.9884    0.0000 </r>
       <r>    1.0282    0.0000 </r>
       <r>    1.0499    0.0000 </r>
       <r>    1.1110    0.0000 </r>
       <r>    1.1206    0.0000 </r>
      </set>
      <set comment="kpoint 4">
       <r>  -25.8054    1.0000 </r>
       <r>  -25.8028    1.0000 </r>
       <r>  -23.3487    1.0000 </r>
       <r>  -23.3457    1.0000 </r>
       <r>  -23.3004    1.0000 </r>
       <r>  -23.2960    1.0000 </r>
       <r>  -22.9995    1.0000 </r>
       <r>  -22.8887    1.0000 </r>
       <r>  -22.4345    1.0000 </r>
       <r>  -22.4333    1.0000 </r>
       <r>  -22.3592    1.0000 </r>
       <r>  -22.3575    1.0000 </r>
       <r>  -20.2981    1.0000 </r>
       <r>  -20.2977    1.0000 </r>
       <r>  -20.2776    1.0000 </r>
       <r>  -18.8722    1.0000 </r>
       <r>  -18.8708    1.0000 </r>
       <r>  -18.4417    1.0000 </r>
       <r>  -18.2908    1.0000 </r>
       <r>  -18.2619    1.0000 </r>
       <r>  -17.8953    1.0000 </r>
       <r>  -17.8946    1.0000 </r>
       <r>  -17.8690    1.0000 </r>
       <r>  -17.5140    1.0000 </r>
       <r>  -16.8683    1.0000 </r>
       <r>  -16.8595    1.0000 </r>
       <r>  -16.3447    1.0000 </r>
       <r>  -15.6645    1.0000 </r>
       <r>  -15.6598    1.0000 </r>
       <r>  -15.1502    1.0000 </r>
       <r>  -15.1411    1.0000 </r>
       <r>  -14.9514    1.0000 </r>
       <r>  -14.6148    1.0000 </r>
       <r>  -14.6065    1.0000 </r>
       <r>  -14.5266    1.0000 </r>
       <r>  -14.0362    1.0000 </r>
       <r>  -13.7985    1.0000 </r>
       <r>  -13.7932    1.0000 </r>
       <r>  -13.4879    1.0000 </r>
       <r>  -13.2104    1.0000 </r>
       <r>  -12.6879    1.0000 </r>
       <r>  -12.6864    1.0000 </r>
       <r>  -12.6645    1.0000 </r>
       <r>  -12.4783    1.0000 </r>
       <r>  -12.4571    1.0000 </r>
       <r>  -12.1619    1.0000 </r>
       <r>  -12.0738    1.0000 </r>
       <r>  -11.8643    1.0000 </r>
       <r>  -11.5917    1.0000 </r>
       <r>  -11.5910    1.0000 </r>
       <r>  -11.3936    1.0000 </r>
       <r>  -11.3010    1.0000 </r>
       <r>  -11.2880    1.0000 </r>
       <r>  -11.1131    1.0000 </r>
       <r>  -11.1083    1.0000 </r>
       <r>  -10.9621    1.0000 </r>
       <r>  -10.9245    1.0000 </r>
       <r>  -10.8721    1.0000 </r>
       <r>  -10.3801    1.0000 </r>
       <r>  -10.3708    1.0000 </r>
       <r>  -10.2341    1.0000 </r>
       <r>  -10.0751    1.0000 </r>
       <r>  -10.0109    1.0000 </r>
       <r>   -9.8975    1.0000 </r>
       <r>   -9.7225    1.0000 </r>
       <r>   -9.7221    1.0000 </r>
       <r>   -9.6105    1.0000 </r>
       <r>   -9.6027    1.0000 </r>
       <r>   -9.5962    1.0000 </r>
       <r>   -9.5435    1.0000 </r>
       <r>   -9.5391    1.0000 </r>
       <r>   -9.4749    1.0000 </r>
       <r>   -9.2000    1.0000 </r>
       <r>   -9.1972    1.0000 </r>
       <r>   -9.0630    1.0000 </r>
       <r>   -8.9158    1.0000 </r>
       <r>   -8.8664    1.0000 </r>
       <r>   -8.8607    1.0000 </r>
       <r>   -8.8186    1.0000 </r>
       <r>   -8.7924    1.0000 </r>
       <r>   -8.7903    1.0000 </r>
       <r>   -8.6118    1.0000 </r>
       <r>   -8.1054    1.0000 </r>
       <r>   -8.1020    1.0000 </r>
       <r>   -7.8182    1.0000 </r>
       <r>   -7.8131    1.0000 </r>
       <r>   -7.6209    1.0000 </r>
       <r>   -7.6200    1.0000 </r>
       <r>   -7.5878    1.0000 </r>
       <r>   -7.2849    1.0000 </r>
       <r>   -7.1811    1.0000 </r>
       <r>   -7.1758    1.0000 </r>
       <r>   -6.4070    1.0000 </r>
       <r>   -6.4045    1.0000 </r>
       <r>   -6.4008    1.0000 </r>
       <r>   -6.3990    1.0000 </r>
       <r>   -5.7277    1.0000 </r>
       <r>   -5.7274    1.0000 </r>
       <r>   -5.7263    1.0000 </r>
       <r>   -5.5697    1.0000 </r>
       <r>   -5.5672    1.0000 </r>
       <r>   -5.5599    1.0000 </r>
       <r>   -3.7604    1.0000 </r>
       <r>   -3.7559    1.0000 </r>
       <r>   -3.7375    1.0000 </r>
       <r>   -2.2898    0.0000 </r>
       <r>   -2.2894    0.0000 </r>
       <r>   -2.2444    0.0000 </r>
       <r>   -2.2426    0.0000 </r>
       <r>   -0.7073    0.0000 </r>
       <r>   -0.6763    0.0000 </r>
       <r>   -0.6756    0.0000 </r>
       <r>   -0.4351    0.0000 </r>
       <r>   -0.2782    0.0000 </r>
       <r>   -0.0931    0.0000 </r>
       <r>   -0.0902    0.0000 </r>
       <r>   -0.0243    0.0000 </r>
       <r>   -0.0217    0.0000 </r>
       <r>    0.0630    0.0000 </r>
       <r>    0.1014    0.0000 </r>
       <r>    0.1063    0.0000 </r>
       <r>    0.2754    0.0000 </r>
       <r>    0.2786    0.0000 </r>
       <r>    0.3966    0.0000 </r>
       <r>    0.5615    0.0000 </r>
       <r>    0.5829    0.0000 </r>
       <r>    0.5925    0.0000 </r>
       <r>    0.6823    0.0000 </r>
       <r>    0.7416    0.0000 </r>
       <r>    0.7461    0.0000 </r>
       <r>    0.8055    0.0000 </r>
       <r>    0.8214    0.0000 </r>
       <r>    0.8334    0.0000 </r>
       <r>    0.8644    0.0000 </r>
       <r>    0.8745    0.0000 </r>
       <r>    0.8951    0.0000 </r>
       <r>    0.9141    0.0000 </r>
       <r>    0.9335    0.0000 </r>
       <r>    0.9821    0.0000 </r>
       <r>    0.9918    0.0000 </r>
       <r>    1.0347    0.0000 </r>
       <r>    1.0465    0.0000 </r>
       <r>    1.1155    0.0000 </r>
       <r>    1.1354    0.0000 </r>
      </set>
      <set comment="kpoint 5">
       <r>  -25.8054    1.0000 </r>
       <r>  -25.8028    1.0000 </r>
       <r>  -23.3483    1.0000 </r>
       <r>  -23.3457    1.0000 </r>
       <r>  -23.3010    1.0000 </r>
       <r>  -23.2960    1.0000 </r>
       <r>  -22.9983    1.0000 </r>
       <r>  -22.8899    1.0000 </r>
       <r>  -22.4344    1.0000 </r>
       <r>  -22.4324    1.0000 </r>
       <r>  -22.3598    1.0000 </r>
       <r>  -22.3575    1.0000 </r>
       <r>  -20.2980    1.0000 </r>
       <r>  -20.2977    1.0000 </r>
       <r>  -20.2778    1.0000 </r>
       <r>  -18.8722    1.0000 </r>
       <r>  -18.8683    1.0000 </r>
       <r>  -18.4579    1.0000 </r>
       <r>  -18.2908    1.0000 </r>
       <r>  -18.2441    1.0000 </r>
       <r>  -17.8953    1.0000 </r>
       <r>  -17.8946    1.0000 </r>
       <r>  -17.8686    1.0000 </r>
       <r>  -17.5220    1.0000 </r>
       <r>  -16.8683    1.0000 </r>
       <r>  -16.8523    1.0000 </r>
       <r>  -16.3504    1.0000 </r>
       <r>  -15.6634    1.0000 </r>
       <r>  -15.6538    1.0000 </r>
       <r>  -15.1588    1.0000 </r>
       <r>  -15.1443    1.0000 </r>
       <r>  -14.9465    1.0000 </r>
       <r>  -14.6182    1.0000 </r>
       <r>  -14.6054    1.0000 </r>
       <r>  -14.5197    1.0000 </r>
       <r>  -14.0401    1.0000 </r>
       <r>  -13.8005    1.0000 </r>
       <r>  -13.7898    1.0000 </r>
       <r>  -13.4905    1.0000 </r>
       <r>  -13.2039    1.0000 </r>
       <r>  -12.6897    1.0000 </r>
       <r>  -12.6869    1.0000 </r>
       <r>  -12.6692    1.0000 </r>
       <r>  -12.4841    1.0000 </r>
       <r>  -12.4540    1.0000 </r>
       <r>  -12.1561    1.0000 </r>
       <r>  -12.0738    1.0000 </r>
       <r>  -11.8605    1.0000 </r>
       <r>  -11.5921    1.0000 </r>
       <r>  -11.5895    1.0000 </r>
       <r>  -11.3976    1.0000 </r>
       <r>  -11.3053    1.0000 </r>
       <r>  -11.2868    1.0000 </r>
       <r>  -11.1126    1.0000 </r>
       <r>  -11.1081    1.0000 </r>
       <r>  -10.9737    1.0000 </r>
       <r>  -10.9242    1.0000 </r>
       <r>  -10.8565    1.0000 </r>
       <r>  -10.3866    1.0000 </r>
       <r>  -10.3709    1.0000 </r>
       <r>  -10.2293    1.0000 </r>
       <r>  -10.0757    1.0000 </r>
       <r>  -10.0104    1.0000 </r>
       <r>   -9.8990    1.0000 </r>
       <r>   -9.7238    1.0000 </r>
       <r>   -9.7227    1.0000 </r>
       <r>   -9.6127    1.0000 </r>
       <r>   -9.6029    1.0000 </r>
       <r>   -9.5938    1.0000 </r>
       <r>   -9.5443    1.0000 </r>
       <r>   -9.5389    1.0000 </r>
       <r>   -9.4696    1.0000 </r>
       <r>   -9.2023    1.0000 </r>
       <r>   -9.1980    1.0000 </r>
       <r>   -9.0610    1.0000 </r>
       <r>   -8.9172    1.0000 </r>
       <r>   -8.8679    1.0000 </r>
       <r>   -8.8608    1.0000 </r>
       <r>   -8.8156    1.0000 </r>
       <r>   -8.7927    1.0000 </r>
       <r>   -8.7897    1.0000 </r>
       <r>   -8.6148    1.0000 </r>
       <r>   -8.1054    1.0000 </r>
       <r>   -8.0982    1.0000 </r>
       <r>   -7.8211    1.0000 </r>
[...]
       <r>   -27.1597     0.0000     0.0000 </r>
       <r>   -27.0604     0.0000     0.0000 </r>
       <r>   -26.9610     0.0000     0.0000 </r>
       <r>   -26.8617     0.0000     0.0000 </r>
       <r>   -26.7624     0.0000     0.0000 </r>
       <r>   -26.6631     0.0000     0.0000 </r>
       <r>   -26.5638     0.0000     0.0000 </r>
       <r>   -26.4645     0.0000     0.0000 </r>
       <r>   -26.3652     0.0000     0.0000 </r>
       <r>   -26.2659     0.0000     0.0000 </r>
       <r>   -26.1666     0.0000     0.0000 </r>
       <r>   -26.0673     0.0000     0.0000 </r>
       <r>   -25.9679     0.0000     0.0000 </r>
       <r>   -25.8686     0.0000     0.0000 </r>
       <r>   -25.7693    40.2781     4.0000 </r>
       <r>   -25.6700     0.0000     4.0000 </r>
       <r>   -25.5707     0.0000     4.0000 </r>
       <r>   -25.4714     0.0000     4.0000 </r>
       <r>   -25.3721     0.0000     4.0000 </r>
       <r>   -25.2728     0.0000     4.0000 </r>
       <r>   -25.1735     0.0000     4.0000 </r>
       <r>   -25.0742     0.0000     4.0000 </r>
       <r>   -24.9749     0.0000     4.0000 </r>
       <r>   -24.8755     0.0000     4.0000 </r>
       <r>   -24.7762     0.0000     4.0000 </r>
       <r>   -24.6769     0.0000     4.0000 </r>
       <r>   -24.5776     0.0000     4.0000 </r>
       <r>   -24.4783     0.0000     4.0000 </r>
       <r>   -24.3790     0.0000     4.0000 </r>
       <r>   -24.2797     0.0000     4.0000 </r>
       <r>   -24.1804     0.0000     4.0000 </r>
       <r>   -24.0811     0.0000     4.0000 </r>
       <r>   -23.9818     0.0000     4.0000 </r>
       <r>   -23.8825     0.0000     4.0000 </r>
       <r>   -23.7831     0.0000     4.0000 </r>
       <r>   -23.6838     0.0000     4.0000 </r>
       <r>   -23.5845     0.0000     4.0000 </r>
       <r>   -23.4852     0.0000     4.0000 </r>
       <r>   -23.3859     0.0000     4.0000 </r>
       <r>   -23.2866    79.2008    11.8654 </r>
       <r>   -23.1873     0.0000    12.0000 </r>
       <r>   -23.0880     0.0000    12.0000 </r>
       <r>   -22.9887     2.9365    12.2916 </r>
       <r>   -22.8894    33.6012    15.8704 </r>
       <r>   -22.7900     0.0000    16.0000 </r>
       <r>   -22.6907     0.0000    16.0000 </r>
       <r>   -22.5914     0.0000    16.0000 </r>
       <r>   -22.4921     0.0000    16.0000 </r>
       <r>   -22.3928    40.7696    20.0488 </r>
       <r>   -22.2935    24.8365    24.0000 </r>
       <r>   -22.1942     0.0000    24.0000 </r>
       <r>   -22.0949     0.0000    24.0000 </r>
       <r>   -21.9956     0.0000    24.0000 </r>
       <r>   -21.8963     0.0000    24.0000 </r>
       <r>   -21.7970     0.0000    24.0000 </r>
       <r>   -21.6976     0.0000    24.0000 </r>
       <r>   -21.5983     0.0000    24.0000 </r>
       <r>   -21.4990     0.0000    24.0000 </r>
       <r>   -21.3997     0.0000    24.0000 </r>
       <r>   -21.3004     0.0000    24.0000 </r>
       <r>   -21.2011     0.0000    24.0000 </r>
       <r>   -21.1018     0.0000    24.0000 </r>
       <r>   -21.0025     0.0000    24.0000 </r>
       <r>   -20.9032     0.0000    24.0000 </r>
       <r>   -20.8039     0.0000    24.0000 </r>
       <r>   -20.7045     0.0000    24.0000 </r>
       <r>   -20.6052     0.0000    24.0000 </r>
       <r>   -20.5059     0.0000    24.0000 </r>
       <r>   -20.4066     0.0000    24.0000 </r>
       <r>   -20.3073     2.4143    24.2398 </r>
       <r>   -20.2080    20.1200    30.0000 </r>
       <r>   -20.1087     0.0000    30.0000 </r>
       <r>   -20.0094     0.0000    30.0000 </r>
       <r>   -19.9101     0.0000    30.0000 </r>
       <r>   -19.8108     0.0000    30.0000 </r>
       <r>   -19.7115     0.0000    30.0000 </r>
       <r>   -19.6121     0.0000    30.0000 </r>
       <r>   -19.5128     0.0000    30.0000 </r>
       <r>   -19.4135     0.0000    30.0000 </r>
       <r>   -19.3142     0.0000    30.0000 </r>
       <r>   -19.2149     0.0000    30.0000 </r>
       <r>   -19.1156     0.0000    30.0000 </r>
       <r>   -19.0163     0.0000    30.0000 </r>
       <r>   -18.9170     0.0000    30.0000 </r>
       <r>   -18.8177    24.6254    32.4455 </r>
       <r>   -18.7184    16.5502    34.1770 </r>
       <r>   -18.6191    10.9031    35.5328 </r>
       <r>   -18.5197     1.6886    35.7344 </r>
       <r>   -18.4204     1.8042    35.9458 </r>
       <r>   -18.3211     0.0007    36.0001 </r>
       <r>   -18.2218    22.0368    38.1885 </r>
       <r>   -18.1225     1.1456    38.3471 </r>
       <r>   -18.0232     1.7250    38.5380 </r>
       <r>   -17.9239    17.5215    40.3402 </r>
       <r>   -17.8246    40.3717    45.4762 </r>
       <r>   -17.7253    12.0676    47.0319 </r>
       <r>   -17.6260     1.7288    47.6050 </r>
       <r>   -17.5266     2.0379    47.8357 </r>
       <r>   -17.4273     0.6708    48.0000 </r>
       <r>   -17.3280     0.0000    48.0000 </r>
       <r>   -17.2287     0.0000    48.0000 </r>
       <r>   -17.1294     0.0000    48.0000 </r>
       <r>   -17.0301     0.0000    48.0000 </r>
       <r>   -16.9308     0.0000    48.0000 </r>
       <r>   -16.8315    22.3409    50.2187 </r>
       <r>   -16.7322     1.8513    50.4505 </r>
       <r>   -16.6329    10.2369    51.5166 </r>
       <r>   -16.5336     8.5541    52.5829 </r>
       <r>   -16.4342     6.9625    53.5916 </r>
       <r>   -16.3349     3.3452    53.9656 </r>
       <r>   -16.2356     0.0000    54.0000 </r>
       <r>   -16.1363     0.0000    54.0000 </r>
       <r>   -16.0370     0.0000    54.0000 </r>
       <r>   -15.9377     0.0000    54.0000 </r>
       <r>   -15.8384     0.0000    54.0000 </r>
       <r>   -15.7391     0.0000    54.0000 </r>
       <r>   -15.6398    13.3824    55.3290 </r>
       <r>   -15.5405     1.9141    56.4568 </r>
       <r>   -15.4412    12.4639    57.7378 </r>
       <r>   -15.3418    13.9685    59.4539 </r>
       <r>   -15.2425     1.4953    59.6485 </r>
       <r>   -15.1432    21.1963    61.8050 </r>
       <r>   -15.0439     0.0000    62.0000 </r>
       <r>   -14.9446     1.5765    62.1566 </r>
       <r>   -14.8453     8.6903    63.1297 </r>
       <r>   -14.7460    10.2779    64.5708 </r>
       <r>   -14.6467     8.8340    65.6773 </r>
       <r>   -14.5474    19.3208    67.7021 </r>
       <r>   -14.4481     2.4290    68.3413 </r>
       <r>   -14.3487     1.7828    68.5438 </r>
       <r>   -14.2494    15.9721    70.1862 </r>
       <r>   -14.1501    11.0693    71.4993 </r>
       <r>   -14.0508     2.5924    71.7908 </r>
       <r>   -13.9515     0.3347    72.0000 </r>
       <r>   -13.8522     0.0068    72.0007 </r>
       <r>   -13.7529    23.5744    74.3418 </r>
       <r>   -13.6536    11.9953    75.6246 </r>
       <r>   -13.5543    16.0465    77.4770 </r>
       <r>   -13.4550     4.3628    78.0000 </r>
       <r>   -13.3557     0.0000    78.0000 </r>
       <r>   -13.2563     0.0000    78.0000 </r>
       <r>   -13.1570     3.0118    78.2991 </r>
       <r>   -13.0577     2.0300    78.5350 </r>
       <r>   -12.9584    12.8570    79.8770 </r>
       <r>   -12.8591    12.2377    81.2987 </r>
       <r>   -12.7598     1.7335    81.6388 </r>
       <r>   -12.6605    32.0254    84.8638 </r>
       <r>   -12.5612    19.9062    87.3103 </r>
       <r>   -12.4619     4.8590    88.0659 </r>
       <r>   -12.3626    17.4534    90.0000 </r>
       <r>   -12.2633     0.0000    90.0000 </r>
       <r>   -12.1639     0.9281    90.0922 </r>
       <r>   -12.0646    36.9107    93.8656 </r>
       <r>   -11.9653     0.0000    94.0000 </r>
       <r>   -11.8660     0.8580    94.0852 </r>
       <r>   -11.7667     2.3530    94.4670 </r>
       <r>   -11.6674    16.5465    96.1433 </r>
       <r>   -11.5681    18.5488    99.0256 </r>
       <r>   -11.4688    13.2267   100.7804 </r>
       <r>   -11.3695    21.9292   103.5612 </r>
       <r>   -11.2702    17.9401   105.4150 </r>
       <r>   -11.1708     0.0000   106.0000 </r>
       <r>   -11.0715    44.0799   110.3776 </r>
       <r>   -10.9722     3.5316   111.8508 </r>
       <r>   -10.8729    22.2843   114.1131 </r>
       <r>   -10.7736     1.5120   114.3168 </r>
       <r>   -10.6743     1.7956   114.5450 </r>
       <r>   -10.5750    15.1207   116.1853 </r>
       <r>   -10.4757    11.0376   117.5628 </r>
       <r>   -10.3764     8.8121   118.5085 </r>
       <r>   -10.2771     0.0000   120.0000 </r>
       <r>   -10.1778     4.1913   120.4162 </r>
       <r>   -10.0784    32.8211   123.7929 </r>
       <r>    -9.9791    11.3809   125.1302 </r>
       <r>    -9.8798    18.6114   127.9985 </r>
       <r>    -9.7805     0.1402   128.0139 </r>
       <r>    -9.6812    34.1824   132.0449 </r>
       <r>    -9.5819    38.0529   136.3125 </r>
       <r>    -9.4826    40.7289   142.0456 </r>
       <r>    -9.3833     2.9837   142.4631 </r>
       <r>    -9.2840    27.1946   145.2340 </r>
       <r>    -9.1847    25.0447   147.9872 </r>
       <r>    -9.0853     0.0025   148.0002 </r>
       <r>    -8.9860    19.3309   149.9200 </r>
       <r>    -8.8867    14.5948   152.0832 </r>
       <r>    -8.7874    53.0432   159.1013 </r>
       <r>    -8.6881    27.6872   163.1830 </r>
       <r>    -8.5888     4.6959   163.9997 </r>
       <r>    -8.4895     0.0000   164.0000 </r>
       <r>    -8.3902     0.0000   164.0000 </r>
       <r>    -8.2909     0.0000   164.0000 </r>
       <r>    -8.1916     0.0000   164.0000 </r>
       <r>    -8.0923    21.4620   166.1314 </r>
       <r>    -7.9929     7.7619   167.0708 </r>
       <r>    -7.8936    18.5586   169.4432 </r>
       <r>    -7.7943    24.4394   171.9937 </r>
       <r>    -7.6950     0.0000   172.0000 </r>
       <r>    -7.5957    50.9502   177.0598 </r>
       <r>    -7.4964     0.0000   178.0000 </r>
       <r>    -7.3971     0.0000   178.0000 </r>
       <r>    -7.2978     0.0801   178.0080 </r>
       <r>    -7.1985    32.8024   181.4910 </r>
       <r>    -7.0992    17.4287   184.0000 </r>
       <r>    -6.9999     0.0000   184.0000 </r>
       <r>    -6.9005     0.0000   184.0000 </r>
       <r>    -6.8012     0.0000   184.0000 </r>
       <r>    -6.7019     0.0000   184.0000 </r>
       <r>    -6.6026     0.0000   184.0000 </r>
       <r>    -6.5033     0.0000   184.0000 </r>
       <r>    -6.4040    36.1479   187.5898 </r>
       <r>    -6.3047     0.0000   192.0000 </r>
       <r>    -6.2054     0.0000   192.0000 </r>
       <r>    -6.1061     0.0000   192.0000 </r>
       <r>    -6.0068     0.0000   192.0000 </r>
       <r>    -5.9074     0.0000   192.0000 </r>
       <r>    -5.8081     0.0000   192.0000 </r>
       <r>    -5.7088    60.1421   197.9727 </r>
       <r>    -5.6095     0.0000   198.0000 </r>
       <r>    -5.5102    60.4172   204.0000 </r>
       <r>    -5.4109     0.0000   204.0000 </r>
       <r>    -5.3116     0.0000   204.0000 </r>
       <r>    -5.2123     0.0000   204.0000 </r>
       <r>    -5.1130     0.0000   204.0000 </r>
       <r>    -5.0137     0.0000   204.0000 </r>
       <r>    -4.9144     0.0000   204.0000 </r>
       <r>    -4.8150     0.0000   204.0000 </r>
       <r>    -4.7157     0.0000   204.0000 </r>
       <r>    -4.6164     0.0000   204.0000 </r>
       <r>    -4.5171     0.0000   204.0000 </r>
       <r>    -4.4178     0.0000   204.0000 </r>
       <r>    -4.3185     0.0000   204.0000 </r>
       <r>    -4.2192     0.0000   204.0000 </r>
       <r>    -4.1199     0.0000   204.0000 </r>
       <r>    -4.0206     0.0000   204.0000 </r>
       <r>    -3.9213     0.0000   204.0000 </r>
       <r>    -3.8220     0.0000   204.0000 </r>
       <r>    -3.7226    60.3226   209.9906 </r>
       <r>    -3.6233     0.0000   210.0000 </r>
       <r>    -3.5240     0.0000   210.0000 </r>
       <r>    -3.4247     0.0000   210.0000 </r>
       <r>    -3.3254     0.0000   210.0000 </r>
       <r>    -3.2261     0.0000   210.0000 </r>
       <r>    -3.1268     0.0000   210.0000 </r>
       <r>    -3.0275     0.0000   210.0000 </r>
       <r>    -2.9282     0.0000   210.0000 </r>
       <r>    -2.8289     0.0000   210.0000 </r>
       <r>    -2.7295     0.0000   210.0000 </r>
       <r>    -2.6302     0.0000   210.0000 </r>
       <r>    -2.5309     0.0000   210.0000 </r>
       <r>    -2.4316     0.0000   210.0000 </r>
       <r>    -2.3323     0.0000   210.0000 </r>
       <r>    -2.2330    80.1453   217.9592 </r>
       <r>    -2.1337     0.0000   218.0000 </r>
       <r>    -2.0344     0.0000   218.0000 </r>
       <r>    -1.9351     0.0000   218.0000 </r>
       <r>    -1.8358     0.0000   218.0000 </r>
       <r>    -1.7365     0.0000   218.0000 </r>
       <r>    -1.6371     0.0000   218.0000 </r>
       <r>    -1.5378     0.0000   218.0000 </r>
       <r>    -1.4385     0.0000   218.0000 </r>
       <r>    -1.3392     0.0000   218.0000 </r>
       <r>    -1.2399     0.0000   218.0000 </r>
       <r>    -1.1406     0.0000   218.0000 </r>
       <r>    -1.0413     0.0000   218.0000 </r>
       <r>    -0.9420     0.0000   218.0000 </r>
       <r>    -0.8427     0.0000   218.0000 </r>
       <r>    -0.7434     0.0000   218.0000 </r>
       <r>    -0.6441    60.4171   224.0000 </r>
       <r>    -0.5447     0.0000   224.0000 </r>
       <r>    -0.4454     0.1611   224.0160 </r>
       <r>    -0.3461    29.0775   227.1544 </r>
       <r>    -0.2468     4.6985   228.0000 </r>
       <r>    -0.1475    11.3749   229.1296 </r>
       <r>    -0.0482    18.9198   231.7625 </r>
       <r>     0.0511    21.1774   234.3367 </r>
       <r>     0.1504    59.0079   241.1605 </r>
       <r>     0.2497     4.8664   242.0001 </r>
       <r>     0.3490    40.7934   246.0513 </r>
       <r>     0.4484    41.5549   251.0772 </r>
       <r>     0.5477     3.9709   251.5944 </r>
       <r>     0.6470    33.2428   255.0014 </r>
       <r>     0.7463    38.9298   260.4331 </r>
       <r>     0.8456    47.5383   266.3885 </r>
       <r>     0.9449    44.3053   271.7502 </r>
       <r>     1.0442    45.2479   276.8938 </r>
       <r>     1.1435    50.4469   282.6602 </r>
       <r>     1.2428    35.9979   286.8917 </r>
       <r>     1.3421     2.1797   288.0000 </r>
       <r>     1.4414     0.0000   288.0000 </r>
       <r>     1.5408     0.0000   288.0000 </r>
       <r>     1.6401     0.0000   288.0000 </r>
       <r>     1.7394     0.0000   288.0000 </r>
       <r>     1.8387     0.0000   288.0000 </r>
       <r>     1.9380     0.0000   288.0000 </r>
       <r>     2.0373     0.0000   288.0000 </r>
       <r>     2.1366     0.0000   288.0000 </r>
       <r>     2.2359     0.0000   288.0000 </r>
       <r>     2.3352     0.0000   288.0000 </r>
       <r>     2.4345     0.0000   288.0000 </r>
       <r>     2.5339     0.0000   288.0000 </r>
       <r>     2.6332     0.0000   288.0000 </r>
      </set>
     </set>
    </array>
   </total>
  </dos>
 </calculation>
 <structure name="finalpos" >
  <crystal>
   <varray name="basis" >
    <v>      21.79081806      -0.03056468       0.00000000 </v>
    <v>     -10.92184548      18.82189741       0.00000000 </v>
    <v>       0.00000000       0.00000000      20.00000000 </v>
   </varray>
   <i name="volume">   8196.21438381 </i>
   <varray name="rec_basis" >
    <v>       0.04592827       0.02665095       0.00000000 </v>
    <v>       0.00007458       0.05317288       0.00000000 </v>
    <v>       0.00000000       0.00000000       0.05000000 </v>
   </varray>
  </crystal>
  <varray name="positions" >
   <v>       0.38097808       0.64992318       0.45989655 </v>
   <v>       0.34549351       0.73151174       0.46063562 </v>
   <v>       0.26369272       0.61398851       0.45975646 </v>
   <v>       0.18792310       0.55417303       0.46132217 </v>
   <v>       0.44062060       0.63412066       0.46170517 </v>
   <v>       0.61264278       0.34751840       0.53546214 </v>
   <v>       0.64892416       0.26658264       0.53809052 </v>
   <v>       0.73010891       0.38432503       0.53704926 </v>
   <v>       0.80566015       0.44459626       0.53510687 </v>
   <v>       0.55276250       0.36286859       0.53190659 </v>
   <v>       0.45594370       0.02994759       0.51012645 </v>
   <v>       0.42453877       0.95935723       0.48956801 </v>
   <v>       0.52941350       0.07117296       0.52181122 </v>
   <v>       0.56955301       0.54030044       0.50441309 </v>
   <v>       0.53002265       0.57144167       0.48502311 </v>
   <v>       0.53726117       0.46674902       0.51604862 </v>
   <v>       0.96521204       0.42680439       0.50794612 </v>
   <v>       0.03566668       0.46562112       0.48709473 </v>
   <v>       0.92493528       0.45980476       0.51992763 </v>
   <v>       0.36143183       0.80715713       0.46331943 </v>
   <v>       0.63342628       0.19101746       0.53730220 </v>
   <v>       0.46563188       0.92670111       0.47973153 </v>
   <v>       0.53910556       0.96790094       0.49146059 </v>
   <v>       0.57050084       0.03850371       0.51203345 </v>
   <v>       0.45590835       0.53005458       0.47637466 </v>
   <v>       0.42362271       0.45648808       0.48791214 </v>
   <v>       0.46316782       0.42532635       0.50726245 </v>
   <v>       0.06910739       0.53968328       0.47731114 </v>
   <v>       0.02886045       0.57270097       0.48938576 </v>
   <v>       0.95839181       0.53388364       0.51021301 </v>
   <v>       0.33857394       0.81299538       0.51099926 </v>
   <v>       0.18103993       0.52492682       0.50891165 </v>
   <v>       0.46988217       0.65687959       0.50922243 </v>
   <v>       0.66517370       0.18547256       0.57752681 </v>
   <v>       0.81175283       0.48284856       0.57465627 </v>
   <v>       0.51438878       0.33166263       0.57177595 </v>
   <v>       0.36744580       0.92986147       0.48049568 </v>
   <v>       0.42272127       0.05385394       0.51724339 </v>
   <v>       0.52860535       0.16430678       0.53731591 </v>
   <v>       0.55764864       0.62859925       0.47593452 </v>
   <v>       0.62693752       0.57378638       0.51073095 </v>
   <v>       0.63157610       0.46798373       0.53112536 </v>
   <v>       0.06441564       0.43748098       0.47764327 </v>
   <v>       0.94065849       0.36940337       0.51501876 </v>
   <v>       0.83158890       0.36597494       0.53704719 </v>
   <v>       0.33015404       0.81392017       0.42338414 </v>
   <v>       0.18143444       0.51626741       0.42128451 </v>
   <v>       0.47846105       0.66559604       0.42156774 </v>
   <v>       0.65596614       0.18413812       0.48987413 </v>
   <v>       0.81230700       0.47320305       0.48716941 </v>
   <v>       0.52422025       0.33953730       0.48417425 </v>
   <v>       0.57232202       0.94398124       0.48439728 </v>
   <v>       0.62757695       0.06795905       0.52119920 </v>
   <v>       0.46626987       0.83348011       0.46314020 </v>
   <v>       0.36622496       0.42301958       0.48165296 </v>
   <v>       0.43557199       0.36816230       0.51630585 </v>
   <v>       0.36165566       0.52899921       0.46175531 </v>
   <v>       0.05344928       0.63011376       0.48241851 </v>
   <v>       0.92964204       0.56201604       0.51972781 </v>
   <v>       0.16283917       0.63339610       0.46115833 </v>
   <v>       0.39959804       0.71914331       0.46024997 </v>
   <v>       0.27630864       0.68070226       0.46018454 </v>
   <v>       0.31426158       0.59558547       0.45944135 </v>
   <v>       0.59448595       0.27845627       0.53677387 </v>
   <v>       0.71796385       0.31777964       0.53858571 </v>
   <v>       0.67919385       0.40219732       0.53571225 </v>
   <v>       0.55881213       0.14118589       0.54376428 </v>
   <v>       0.57806482       0.43760702       0.53712597 </v>
   <v>       0.85505516       0.41967635       0.54209513 </v>
   <v>       0.43611862       0.85675941       0.45769558 </v>
   <v>       0.41514719       0.55940054       0.45564312 </v>
   <v>       0.13897402       0.57978016       0.45501384 </v>
  </varray>
 </structure>
</modeling>
