<?xml version="1.0" encoding="ISO-8859-1"?>
<modeling>
 <generator>
  <i name="program" type="string">vasp </i>
  <i name="version" type="string">5.4.4.18Apr17-6-g9f103f2a35  </i>
  <i name="subversion" type="string">(build Jun 07 2020 16:50:00) complex            parallel </i>
  <i name="platform" type="string">LinuxIFC </i>
  <i name="date" type="string">2023 02 27 </i>
  <i name="time" type="string">16:44:08 </i>
 </generator>
 <incar>
  <i type="string" name="SYSTEM">Simulation for cell shape cell volume r</i>
  <i type="int" name="ISTART">     1</i>
  <i type="string" name="PREC">high</i>
  <i type="string" name="ALGO">48</i>
  <i type="int" name="ICHARG">    11</i>
  <i type="int" name="NELM">   200</i>
  <i type="int" name="IBRION">    -1</i>
  <i name="EDIFF">      0.00001000</i>
  <i name="EDIFFG">     -0.01000000</i>
  <i type="int" name="NSW">     0</i>
  <i type="int" name="ISIF">     2</i>
  <i name="ENCUT">    500.00000000</i>
  <i name="POTIM">      0.30000000</i>
  <i type="string" name="LREAL">A</i>
  <i type="int" name="ISMEAR">     0</i>
  <i name="SIGMA">      0.01000000</i>
  <i type="int" name="NWRITE">     0</i>
  <i type="logical" name="LWAVE"> F  </i>
  <i type="logical" name="LCHARG"> F  </i>
  <v type="int" name="KPOINT_BSE">    -1     0     0     0</v>
  <i type="int" name="NELM">   200</i>
  <i type="string" name="GGA">PE</i>
 </incar>
 <structure name="primitive_cell" >
  <crystal>
   <varray name="basis" >
    <v>      22.90402873       0.04185314       0.00000000 </v>
    <v>     -11.40609919      19.82961256       0.00000000 </v>
    <v>       0.00000000       0.00000000      20.00000000 </v>
   </varray>
   <i name="volume">   9093.10793377 </i>
   <varray name="rec_basis" >
    <v>       0.04361460       0.02508735       0.00000000 </v>
    <v>      -0.00009205       0.05037668       0.00000000 </v>
    <v>       0.00000000       0.00000000       0.05000000 </v>
   </varray>
  </crystal>
  <varray name="positions" >
   <v>      -0.08227955       0.07778765       0.36711914 </v>
   <v>      -0.06518702       0.04453723       0.37152519 </v>
   <v>      -0.12032654       0.06072637       0.33291737 </v>
   <v>      -0.10102541       0.09294215       0.42931290 </v>
   <v>      -0.13717808       0.12788634       0.42910504 </v>
   <v>      -0.08258488       0.07639020       0.49046627 </v>
   <v>      -0.11798505       0.16087525       0.33281673 </v>
   <v>      -0.15637773       0.14220312       0.36669934 </v>
   <v>      -0.04458012       0.03917354       0.49096650 </v>
   <v>       0.02606885       0.07415284       0.49146753 </v>
   <v>      -0.07873642      -0.03155741       0.49135732 </v>
   <v>       0.05312744       0.12915151       0.49114620 </v>
   <v>      -0.13368155      -0.05930469       0.49090414 </v>
   <v>      -0.15529757       0.14520624       0.49001347 </v>
   <v>      -0.10076292       0.09365088      -0.44862054 </v>
   <v>      -0.17535655       0.17391389       0.37110109 </v>
   <v>       0.08886987       0.06049781       0.37300597 </v>
   <v>      -0.05908277      -0.09325359       0.37305281 </v>
   <v>      -0.13704967       0.12844475      -0.44885273 </v>
   <v>       0.06253673       0.03974335       0.49243710 </v>
   <v>      -0.04356791      -0.06732821       0.49237264 </v>
   <v>      -0.19307477       0.18269533       0.48979834 </v>
   <v>      -0.08165933       0.07931354      -0.38623902 </v>
   <v>      -0.06429779       0.04625129      -0.39018046 </v>
   <v>       0.02704485      -0.03100851       0.49296541 </v>
   <v>       0.13925238       0.07847721       0.36897954 </v>
   <v>      -0.07974561      -0.14405212       0.36886532 </v>
   <v>      -0.11845788      -0.16272962       0.33536866 </v>
   <v>       0.15967226       0.11728270       0.33552555 </v>
   <v>      -0.10288867       0.28048662       0.48912241 </v>
   <v>      -0.29059433       0.09232783       0.49033694 </v>
   <v>       0.13752860       0.07774181       0.49251157 </v>
   <v>      -0.08084039      -0.14242050       0.49238807 </v>
   <v>      -0.15620337       0.14319053      -0.38665093 </v>
   <v>      -0.15784621       0.25367367       0.48928996 </v>
   <v>      -0.11958101       0.06245644      -0.35191549 </v>
   <v>      -0.26398690       0.14734088       0.49001905 </v>
   <v>       0.17252986       0.09661455       0.43142251 </v>
   <v>      -0.09869107      -0.17744279       0.43126650 </v>
   <v>       0.05492921      -0.05822470       0.49366961 </v>
   <v>      -0.11780388       0.16214483      -0.35277326 </v>
   <v>      -0.17533870       0.17473996      -0.39134826 </v>
   <v>       0.08896978       0.05830603      -0.38805346 </v>
   <v>      -0.06001798      -0.09386521      -0.38804272 </v>
   <v>      -0.16433887       0.32243562       0.36862538 </v>
   <v>      -0.34403400       0.13675628       0.36380771 </v>
   <v>       0.17270702       0.09553845      -0.44645794 </v>
   <v>      -0.09903742      -0.17774172      -0.44666405 </v>
   <v>      -0.19280497       0.28955130       0.48900711 </v>
   <v>      -0.29988069       0.18216957       0.48961341 </v>
   <v>       0.24335288       0.13267377       0.43143302 </v>
   <v>      -0.13442296      -0.24837633       0.43112231 </v>
   <v>       0.13934091       0.07624271      -0.38412254 </v>
   <v>      -0.08053646      -0.14466650      -0.38408515 </v>
   <v>      -0.11501782      -0.25989701       0.33445895 </v>
   <v>       0.25651760       0.11398485       0.33482430 </v>
   <v>      -0.26324489       0.25276240       0.48919969 </v>
   <v>       0.27680989       0.15197125       0.36915614 </v>
   <v>      -0.15281424      -0.28183505       0.36881496 </v>
   <v>      -0.11942815      -0.16366028      -0.35078631 </v>
   <v>       0.15972953       0.11431369      -0.34988281 </v>
   <v>      -0.16787421       0.36493462       0.36554144 </v>
   <v>      -0.37266317       0.15886353       0.36821430 </v>
   <v>       0.24357535       0.13171209      -0.44654129 </v>
   <v>      -0.13481251      -0.24868281      -0.44688300 </v>
   <v>       0.27853921       0.15037822       0.49238358 </v>
   <v>      -0.15267048      -0.28369318       0.49203589 </v>
   <v>      -0.13571563       0.39678914       0.33021619 </v>
   <v>      -0.16381375       0.36430635       0.48880167 </v>
   <v>      -0.37447182       0.15355358       0.48958130 </v>
   <v>      -0.15781607       0.32423030      -0.39202368 </v>
   <v>      -0.33820479       0.14176357      -0.39055280 </v>
   <v>      -0.39658978       0.15982630       0.32607600 </v>
   <v>      -0.16031701       0.39686226       0.42798270 </v>
   <v>      -0.40629569       0.15150561       0.42853380 </v>
   <v>      -0.29086144       0.28023539       0.48889942 </v>
   <v>       0.32722333       0.17022476       0.37328737 </v>
   <v>      -0.16859394      -0.33186639       0.37277323 </v>
   <v>       0.27733278       0.15025876      -0.38429194 </v>
   <v>      -0.15369178      -0.28246560      -0.38474389 </v>
   <v>      -0.15754235       0.39757180      -0.45014512 </v>
   <v>      -0.16237988       0.36609223      -0.38799151 </v>
   <v>      -0.40700422       0.14925447      -0.44941096 </v>
   <v>      -0.37640864       0.15216311      -0.38750900 </v>
   <v>       0.36092570       0.28583712       0.49075551 </v>
   <v>      -0.28768778      -0.36587343       0.49164056 </v>
   <v>      -0.11601163      -0.26101305      -0.35020934 </v>
   <v>       0.25714341       0.11173487      -0.35051480 </v>
   <v>       0.35351669       0.18788404       0.49175313 </v>
   <v>      -0.18999606      -0.35878262       0.49167709 </v>
   <v>      -0.12926373       0.39849678      -0.35358175 </v>
   <v>       0.38907245       0.25885358       0.49067737 </v>
   <v>      -0.26088245      -0.39419795       0.49131639 </v>
   <v>      -0.15896059       0.45914916       0.42843067 </v>
   <v>       0.32764369       0.16799543      -0.38891905 </v>
   <v>      -0.41015873       0.12370590      -0.35157471 </v>
   <v>      -0.46815757       0.15102029       0.42884109 </v>
   <v>      -0.16983456      -0.33255370      -0.38901251 </v>
   <v>      -0.19504579       0.45158241       0.33425071 </v>
   <v>       0.49119702       0.11344756       0.33726966 </v>
   <v>       0.36092952       0.09727136       0.49274634 </v>
   <v>      -0.09961804      -0.36652210       0.49152742 </v>
   <v>       0.38902376       0.15226215       0.49157071 </v>
   <v>      -0.15611951       0.45990421      -0.44963603 </v>
   <v>      -0.16132289       0.48716651       0.36626635 </v>
   <v>      -0.15455370      -0.39451998       0.49131029 </v>
   <v>      -0.46638438       0.15352654      -0.44911598 </v>
   <v>      -0.49577111       0.15495484       0.36621480 </v>
   <v>      -0.16042953       0.48873312       0.48968141 </v>
   <v>      -0.33217785      -0.46370004       0.37081546 </v>
   <v>      -0.49508205       0.15721549       0.49002930 </v>
   <v>       0.46575238       0.32559664       0.37040328 </v>
   <v>       0.45952532       0.29439324       0.48939505 </v>
   <v>      -0.29659505      -0.46479369       0.49054708 </v>
   <v>      -0.17167122      -0.47462456       0.37120259 </v>
   <v>      -0.15546167       0.48874346      -0.38694671 </v>
   <v>       0.46247025       0.15936368       0.37276087 </v>
   <v>      -0.18833828       0.45385550      -0.35387426 </v>
   <v>      -0.45641843       0.19082513      -0.35508053 </v>
   <v>      -0.49299979       0.15743782      -0.38652057 </v>
   <v>       0.45957475       0.18682260       0.48992235 </v>
   <v>      -0.18923595      -0.46517635       0.49046248 </v>
   <v>      -0.49443179       0.37315898       0.36639788 </v>
   <v>      -0.37200067       0.48873306       0.36701282 </v>
   <v>      -0.40507482       0.48731144       0.33201172 </v>
   <v>      -0.28714856       0.44628174       0.48939331 </v>
   <v>       0.45596284       0.34119779      -0.38475579 </v>
   <v>      -0.45179320       0.28473102       0.48765692 </v>
   <v>      -0.32709263      -0.46899645      -0.39234834 </v>
   <v>      -0.49472393       0.36904647       0.48956085 </v>
   <v>      -0.37121694       0.48965828       0.49028438 </v>
   <v>       0.49330202       0.25738993       0.48864611 </v>
   <v>      -0.25975957      -0.49874134       0.49007879 </v>
   <v>      -0.40367035       0.46234921       0.42915303 </v>
   <v>      -0.46575694       0.40157446       0.42884781 </v>
   <v>      -0.16488492      -0.47235253      -0.39092933 </v>
   <v>      -0.46000014       0.37400591       0.33339976 </v>
   <v>       0.47048653       0.17020947      -0.39132063 </v>
   <v>      -0.49321625       0.36627850      -0.38878907 </v>
   <v>      -0.37232246       0.48821964      -0.38618746 </v>
   <v>      -0.40121715       0.49940047      -0.35570407 </v>
   <v>      -0.40414218       0.46156350      -0.44877527 </v>
   <v>      -0.46602927       0.40057133      -0.44899880 </v>
   <v>      -0.46893636       0.39080204      -0.34662632 </v>
  </varray>
 </structure>
 <varray name="primitive_index" >
  <v type="int" >        1 </v>
  <v type="int" >       87 </v>
  <v type="int" >       88 </v>
  <v type="int" >       28 </v>
  <v type="int" >       34 </v>
  <v type="int" >       29 </v>
  <v type="int" >       94 </v>
  <v type="int" >        3 </v>
  <v type="int" >       25 </v>
  <v type="int" >       27 </v>
  <v type="int" >       26 </v>
  <v type="int" >       85 </v>
  <v type="int" >       86 </v>
  <v type="int" >       36 </v>
  <v type="int" >       30 </v>
  <v type="int" >       93 </v>
  <v type="int" >      119 </v>
  <v type="int" >      115 </v>
  <v type="int" >       35 </v>
  <v type="int" >       48 </v>
  <v type="int" >       46 </v>
  <v type="int" >       32 </v>
  <v type="int" >        2 </v>
  <v type="int" >       89 </v>
  <v type="int" >       47 </v>
  <v type="int" >       12 </v>
  <v type="int" >       10 </v>
  <v type="int" >      116 </v>
  <v type="int" >      120 </v>
  <v type="int" >       92 </v>
  <v type="int" >       91 </v>
  <v type="int" >       77 </v>
  <v type="int" >       73 </v>
  <v type="int" >        4 </v>
  <v type="int" >       33 </v>
  <v type="int" >       90 </v>
  <v type="int" >       31 </v>
  <v type="int" >       64 </v>
  <v type="int" >       62 </v>
  <v type="int" >      106 </v>
  <v type="int" >       95 </v>
  <v type="int" >       96 </v>
  <v type="int" >      135 </v>
  <v type="int" >      131 </v>
  <v type="int" >       99 </v>
  <v type="int" >      100 </v>
  <v type="int" >       78 </v>
  <v type="int" >       74 </v>
  <v type="int" >       37 </v>
  <v type="int" >       39 </v>
  <v type="int" >       63 </v>
  <v type="int" >       61 </v>
  <v type="int" >       20 </v>
  <v type="int" >       18 </v>
  <v type="int" >      114 </v>
  <v type="int" >      118 </v>
  <v type="int" >       38 </v>
  <v type="int" >       11 </v>
  <v type="int" >        9 </v>
  <v type="int" >      132 </v>
  <v type="int" >      136 </v>
  <v type="int" >        5 </v>
  <v type="int" >        6 </v>
  <v type="int" >       79 </v>
  <v type="int" >       75 </v>
  <v type="int" >       80 </v>
  <v type="int" >       76 </v>
  <v type="int" >       98 </v>
  <v type="int" >       41 </v>
  <v type="int" >       42 </v>
  <v type="int" >      102 </v>
  <v type="int" >      104 </v>
  <v type="int" >      101 </v>
  <v type="int" >       40 </v>
  <v type="int" >       43 </v>
  <v type="int" >       97 </v>
  <v type="int" >      117 </v>
  <v type="int" >      113 </v>
  <v type="int" >       19 </v>
  <v type="int" >       17 </v>
  <v type="int" >       44 </v>
  <v type="int" >        7 </v>
  <v type="int" >       45 </v>
  <v type="int" >        8 </v>
  <v type="int" >      110 </v>
  <v type="int" >      108 </v>
  <v type="int" >      129 </v>
  <v type="int" >      133 </v>
  <v type="int" >       59 </v>
  <v type="int" >       53 </v>
  <v type="int" >      103 </v>
  <v type="int" >       58 </v>
  <v type="int" >       54 </v>
  <v type="int" >       66 </v>
  <v type="int" >      134 </v>
  <v type="int" >      105 </v>
  <v type="int" >       71 </v>
  <v type="int" >      130 </v>
  <v type="int" >      122 </v>
  <v type="int" >      127 </v>
  <v type="int" >      111 </v>
  <v type="int" >      107 </v>
  <v type="int" >       60 </v>
  <v type="int" >       81 </v>
  <v type="int" >       13 </v>
  <v type="int" >       52 </v>
  <v type="int" >       84 </v>
  <v type="int" >       16 </v>
  <v type="int" >       65 </v>
  <v type="int" >      124 </v>
  <v type="int" >       72 </v>
  <v type="int" >      125 </v>
  <v type="int" >       57 </v>
  <v type="int" >       49 </v>
  <v type="int" >      121 </v>
  <v type="int" >       21 </v>
  <v type="int" >      128 </v>
  <v type="int" >      138 </v>
  <v type="int" >      144 </v>
  <v type="int" >       24 </v>
  <v type="int" >       55 </v>
  <v type="int" >       51 </v>
  <v type="int" >       15 </v>
  <v type="int" >       14 </v>
  <v type="int" >      123 </v>
  <v type="int" >      109 </v>
  <v type="int" >      141 </v>
  <v type="int" >      112 </v>
  <v type="int" >      139 </v>
  <v type="int" >       67 </v>
  <v type="int" >       70 </v>
  <v type="int" >       56 </v>
  <v type="int" >       50 </v>
  <v type="int" >       69 </v>
  <v type="int" >       68 </v>
  <v type="int" >      137 </v>
  <v type="int" >      126 </v>
  <v type="int" >      143 </v>
  <v type="int" >       23 </v>
  <v type="int" >       22 </v>
  <v type="int" >      140 </v>
  <v type="int" >       82 </v>
  <v type="int" >       83 </v>
  <v type="int" >      142 </v>
 </varray>
 <kpoints>
  <generation param="listgenerated">
   <i name="divisions" type="int">      20 </i>
   <v>       0.00000000       0.00000000       0.00000000 </v>
   <v>       0.50000000       0.00000000       0.00000000 </v>
   <v>       0.33333333       0.33333333       0.00000000 </v>
   <v>       0.00000000       0.00000000       0.00000000 </v>
  </generation>
  <varray name="kpointlist" >
   <v>       0.00000000       0.00000000       0.00000000 </v>
   <v>       0.02631579       0.00000000       0.00000000 </v>
   <v>       0.05263158       0.00000000       0.00000000 </v>
   <v>       0.07894737       0.00000000       0.00000000 </v>
   <v>       0.10526316       0.00000000       0.00000000 </v>
   <v>       0.13157895       0.00000000       0.00000000 </v>
   <v>       0.15789474       0.00000000       0.00000000 </v>
   <v>       0.18421053       0.00000000       0.00000000 </v>
   <v>       0.21052632       0.00000000       0.00000000 </v>
   <v>       0.23684211       0.00000000       0.00000000 </v>
   <v>       0.26315789       0.00000000       0.00000000 </v>
   <v>       0.28947368       0.00000000       0.00000000 </v>
   <v>       0.31578947       0.00000000       0.00000000 </v>
   <v>       0.34210526       0.00000000       0.00000000 </v>
   <v>       0.36842105       0.00000000       0.00000000 </v>
   <v>       0.39473684       0.00000000       0.00000000 </v>
   <v>       0.42105263       0.00000000       0.00000000 </v>
   <v>       0.44736842       0.00000000       0.00000000 </v>
   <v>       0.47368421       0.00000000       0.00000000 </v>
   <v>       0.50000000       0.00000000       0.00000000 </v>
   <v>       0.50000000       0.00000000       0.00000000 </v>
   <v>       0.49122807       0.01754386       0.00000000 </v>
   <v>       0.48245614       0.03508772       0.00000000 </v>
   <v>       0.47368421       0.05263158       0.00000000 </v>
   <v>       0.46491228       0.07017544       0.00000000 </v>
   <v>       0.45614035       0.08771930       0.00000000 </v>
   <v>       0.44736842       0.10526316       0.00000000 </v>
   <v>       0.43859649       0.12280702       0.00000000 </v>
   <v>       0.42982456       0.14035088       0.00000000 </v>
   <v>       0.42105263       0.15789474       0.00000000 </v>
   <v>       0.41228070       0.17543860       0.00000000 </v>
   <v>       0.40350877       0.19298246       0.00000000 </v>
   <v>       0.39473684       0.21052632       0.00000000 </v>
   <v>       0.38596491       0.22807018       0.00000000 </v>
   <v>       0.37719298       0.24561404       0.00000000 </v>
   <v>       0.36842105       0.26315789       0.00000000 </v>
   <v>       0.35964912       0.28070175       0.00000000 </v>
   <v>       0.35087719       0.29824561       0.00000000 </v>
   <v>       0.34210526       0.31578947       0.00000000 </v>
   <v>       0.33333333       0.33333333       0.00000000 </v>
   <v>       0.33333333       0.33333333       0.00000000 </v>
   <v>       0.31578947       0.31578947       0.00000000 </v>
   <v>       0.29824561       0.29824561       0.00000000 </v>
   <v>       0.28070175       0.28070175       0.00000000 </v>
   <v>       0.26315789       0.26315789       0.00000000 </v>
   <v>       0.24561404       0.24561404       0.00000000 </v>
   <v>       0.22807018       0.22807018       0.00000000 </v>
   <v>       0.21052632       0.21052632       0.00000000 </v>
   <v>       0.19298246       0.19298246       0.00000000 </v>
   <v>       0.17543860       0.17543860       0.00000000 </v>
   <v>       0.15789474       0.15789474       0.00000000 </v>
   <v>       0.14035088       0.14035088       0.00000000 </v>
   <v>       0.12280702       0.12280702       0.00000000 </v>
   <v>       0.10526316       0.10526316       0.00000000 </v>
   <v>       0.08771930       0.08771930       0.00000000 </v>
   <v>       0.07017544       0.07017544       0.00000000 </v>
   <v>       0.05263158       0.05263158       0.00000000 </v>
   <v>       0.03508772       0.03508772       0.00000000 </v>
   <v>       0.01754386       0.01754386       0.00000000 </v>
   <v>       0.00000000       0.00000000       0.00000000 </v>
  </varray>
  <varray name="weights" >
   <v>       0.01666667 </v>
   <v>       0.01666667 </v>
   <v>       0.01666667 </v>
   <v>       0.01666667 </v>
   <v>       0.01666667 </v>
   <v>       0.01666667 </v>
   <v>       0.01666667 </v>
   <v>       0.01666667 </v>
   <v>       0.01666667 </v>
   <v>       0.01666667 </v>
   <v>       0.01666667 </v>
   <v>       0.01666667 </v>
   <v>       0.01666667 </v>
   <v>       0.01666667 </v>
   <v>       0.01666667 </v>
   <v>       0.01666667 </v>
   <v>       0.01666667 </v>
   <v>       0.01666667 </v>
   <v>       0.01666667 </v>
   <v>       0.01666667 </v>
   <v>       0.01666667 </v>
   <v>       0.01666667 </v>
   <v>       0.01666667 </v>
   <v>       0.01666667 </v>
   <v>       0.01666667 </v>
   <v>       0.01666667 </v>
   <v>       0.01666667 </v>
   <v>       0.01666667 </v>
   <v>       0.01666667 </v>
   <v>       0.01666667 </v>
   <v>       0.01666667 </v>
   <v>       0.01666667 </v>
   <v>       0.01666667 </v>
   <v>       0.01666667 </v>
   <v>       0.01666667 </v>
   <v>       0.01666667 </v>
   <v>       0.01666667 </v>
   <v>       0.01666667 </v>
   <v>       0.01666667 </v>
   <v>       0.01666667 </v>
   <v>       0.01666667 </v>
   <v>       0.01666667 </v>
   <v>       0.01666667 </v>
   <v>       0.01666667 </v>
   <v>       0.01666667 </v>
   <v>       0.01666667 </v>
   <v>       0.01666667 </v>
   <v>       0.01666667 </v>
   <v>       0.01666667 </v>
   <v>       0.01666667 </v>
   <v>       0.01666667 </v>
   <v>       0.01666667 </v>
   <v>       0.01666667 </v>
   <v>       0.01666667 </v>
   <v>       0.01666667 </v>
   <v>       0.01666667 </v>
   <v>       0.01666667 </v>
   <v>       0.01666667 </v>
   <v>       0.01666667 </v>
   <v>       0.01666667 </v>
  </varray>
 </kpoints>
 <parameters>
  <separator name="general" >
   <i type="string" name="SYSTEM">Simulation for cell shape cell volume r</i>
   <i type="logical" name="LCOMPAT"> F  </i>
  </separator>
  <separator name="electronic" >
   <i type="string" name="PREC">high</i>
   <i name="ENMAX">    500.00000000</i>
   <i name="ENAUG">    644.87300000</i>
   <i name="EDIFF">      0.00001000</i>
   <i type="int" name="IALGO">    38</i>
   <i type="int" name="IWAVPR">    10</i>
   <i type="int" name="NBANDS">   288</i>
   <i name="NELECT">    420.00000000</i>
   <i type="int" name="TURBO">     0</i>
   <i type="int" name="IRESTART">     0</i>
   <i type="int" name="NREBOOT">     0</i>
   <i type="int" name="NMIN">     0</i>
   <i name="EREF">      0.00000000</i>
   <separator name="electronic smearing" >
    <i type="int" name="ISMEAR">     0</i>
    <i name="SIGMA">      0.01000000</i>
    <i name="KSPACING">      0.50000000</i>
    <i type="logical" name="KGAMMA"> T  </i>
   </separator>
   <separator name="electronic projectors" >
    <i type="logical" name="LREAL"> T  </i>
    <v name="ROPT">     -0.00040000     -0.00040000     -0.00040000</v>
    <i type="int" name="LMAXPAW">  -100</i>
    <i type="int" name="LMAXMIX">     2</i>
    <i type="logical" name="NLSPLINE"> F  </i>
   </separator>
   <separator name="electronic startup" >
    <i type="int" name="ISTART">     1</i>
    <i type="int" name="ICHARG">    11</i>
    <i type="int" name="INIWAV">     1</i>
   </separator>
   <separator name="electronic spin" >
    <i type="int" name="ISPIN">     1</i>
    <i type="logical" name="LNONCOLLINEAR"> F  </i>
    <v name="MAGMOM">      1.00000000      1.00000000      1.00000000      1.00000000      1.00000000      1.00000000      1.00000000      1.00000000      1.00000000      1.00000000      1.00000000      1.00000000      1.00000000      1.00000000      1.00000000      1.00000000      1.00000000      1.00000000      1.00000000      1.00000000
      1.00000000      1.00000000      1.00000000      1.00000000      1.00000000      1.00000000      1.00000000      1.00000000      1.00000000      1.00000000      1.00000000      1.00000000      1.00000000      1.00000000      1.00000000      1.00000000      1.00000000      1.00000000      1.00000000      1.00000000
      1.00000000      1.00000000      1.00000000      1.00000000      1.00000000      1.00000000      1.00000000      1.00000000      1.00000000      1.00000000      1.00000000      1.00000000      1.00000000      1.00000000      1.00000000      1.00000000      1.00000000      1.00000000      1.00000000      1.00000000
      1.00000000      1.00000000      1.00000000      1.00000000      1.00000000      1.00000000      1.00000000      1.00000000      1.00000000      1.00000000      1.00000000      1.00000000      1.00000000      1.00000000      1.00000000      1.00000000      1.00000000      1.00000000      1.00000000      1.00000000
      1.00000000      1.00000000      1.00000000      1.00000000      1.00000000      1.00000000      1.00000000      1.00000000      1.00000000      1.00000000      1.00000000      1.00000000      1.00000000      1.00000000      1.00000000      1.00000000      1.00000000      1.00000000      1.00000000      1.00000000
      1.00000000      1.00000000      1.00000000      1.00000000      1.00000000      1.00000000      1.00000000      1.00000000      1.00000000      1.00000000      1.00000000      1.00000000      1.00000000      1.00000000      1.00000000      1.00000000      1.00000000      1.00000000      1.00000000      1.00000000
      1.00000000      1.00000000      1.00000000      1.00000000      1.00000000      1.00000000      1.00000000      1.00000000      1.00000000      1.00000000      1.00000000      1.00000000      1.00000000      1.00000000      1.00000000      1.00000000      1.00000000      1.00000000      1.00000000      1.00000000
      1.00000000      1.00000000      1.00000000      1.00000000</v>
    <i name="NUPDOWN">     -1.00000000</i>
    <i type="logical" name="LSORBIT"> F  </i>
    <v name="SAXIS">      0.00000000      0.00000000      1.00000000</v>
    <i type="logical" name="LSPIRAL"> F  </i>
    <v name="QSPIRAL">      0.00000000      0.00000000      0.00000000</v>
    <i type="logical" name="LZEROZ"> F  </i>
   </separator>
   <separator name="electronic exchange-correlation" >
    <i type="logical" name="LASPH"> F  </i>
    <i type="logical" name="LMETAGGA"> F  </i>
   </separator>
   <separator name="electronic convergence" >
    <i type="int" name="NELM">   200</i>
    <i type="int" name="NELMDL">     0</i>
    <i type="int" name="NELMIN">     2</i>
    <i name="ENINI">    500.00000000</i>
    <separator name="electronic convergence detail" >
     <i type="logical" name="LDIAG"> T  </i>
     <i type="logical" name="LSUBROT"> F  </i>
     <i name="WEIMIN">      0.00000000</i>
     <i name="EBREAK">      0.00000001</i>
     <i name="DEPER">      0.30000000</i>
     <i type="int" name="NRMM">     4</i>
     <i name="TIME">      0.40000000</i>
    </separator>
   </separator>
   <separator name="electronic mixer" >
    <i name="AMIX">      0.40000000</i>
    <i name="BMIX">      1.00000000</i>
    <i name="AMIN">      0.10000000</i>
    <i name="AMIX_MAG">      1.60000000</i>
    <i name="BMIX_MAG">      1.00000000</i>
    <separator name="electronic mixer details" >
     <i type="int" name="IMIX">     4</i>
     <i type="logical" name="MIXFIRST"> F  </i>
     <i type="int" name="MAXMIX">   -45</i>
     <i name="WC">    100.00000000</i>
     <i type="int" name="INIMIX">     1</i>
     <i type="int" name="MIXPRE">     1</i>
     <i type="int" name="MREMOVE">     5</i>
    </separator>
   </separator>
   <separator name="electronic dipolcorrection" >
    <i type="logical" name="LDIPOL"> F  </i>
    <i type="logical" name="LMONO"> F  </i>
    <i type="int" name="IDIPOL">     0</i>
    <i name="EPSILON">      1.00000000</i>
    <v name="DIPOL">   -100.00000000   -100.00000000   -100.00000000</v>
    <i name="EFIELD">      0.00000000</i>
   </separator>
  </separator>
  <separator name="grids" >
   <i type="int" name="NGX">   168</i>
   <i type="int" name="NGY">   168</i>
   <i type="int" name="NGZ">   150</i>
   <i type="int" name="NGXF">   252</i>
   <i type="int" name="NGYF">   252</i>
   <i type="int" name="NGZF">   224</i>
   <i type="logical" name="ADDGRID"> F  </i>
  </separator>
  <separator name="ionic" >
   <i type="int" name="NSW">     0</i>
   <i type="int" name="IBRION">    -1</i>
   <i type="int" name="MDALGO">     0</i>
   <i type="int" name="ISIF">     2</i>
   <i name="PSTRESS">      0.00000000</i>
   <i name="EDIFFG">     -0.01000000</i>
   <i type="int" name="NFREE">     0</i>
   <i name="POTIM">      0.30000000</i>
   <i name="SMASS">     -3.00000000</i>
   <i name="SCALEE">      1.00000000</i>
  </separator>
  <separator name="ionic md" >
   <i name="TEBEG">      0.00010000</i>
   <i name="TEEND">      0.00010000</i>
   <i type="int" name="NBLOCK">     1</i>
   <i type="int" name="KBLOCK">     1</i>
   <i type="int" name="NPACO">   256</i>
   <i name="APACO">     16.00000000</i>
  </separator>
  <separator name="symmetry" >
   <i type="int" name="ISYM">     2</i>
   <i name="SYMPREC">      0.00001000</i>
  </separator>
  <separator name="dos" >
   <i type="int" name="LORBIT">     0</i>
   <v name="RWIGS">     -1.00000000     -1.00000000     -1.00000000</v>
   <i type="int" name="NEDOS">   301</i>
   <i name="EMIN">     10.00000000</i>
   <i name="EMAX">    -10.00000000</i>
   <i name="EFERMI">      0.00000000</i>
  </separator>
  <separator name="writing" >
   <i type="int" name="NWRITE">     0</i>
   <i type="logical" name="LWAVE"> F  </i>
   <i type="logical" name="LDOWNSAMPLE"> F  </i>
   <i type="logical" name="LCHARG"> F  </i>
   <i type="logical" name="LPARD"> F  </i>
   <i type="logical" name="LVTOT"> F  </i>
   <i type="logical" name="LVHAR"> F  </i>
   <i type="logical" name="LELF"> F  </i>
   <i type="logical" name="LOPTICS"> F  </i>
   <v name="STM">      0.00000000      0.00000000      0.00000000      0.00000000      0.00000000      0.00000000      0.00000000</v>
  </separator>
  <separator name="performance" >
   <i type="int" name="NPAR">    16</i>
   <i type="int" name="NSIM">     4</i>
   <i type="int" name="NBLK">    -1</i>
   <i type="logical" name="LPLANE"> T  </i>
   <i type="logical" name="LSCALAPACK"> T  </i>
   <i type="logical" name="LSCAAWARE"> F  </i>
   <i type="logical" name="LSCALU"> F  </i>
   <i type="logical" name="LASYNC"> F  </i>
   <i type="logical" name="LORBITALREAL"> F  </i>
  </separator>
  <separator name="miscellaneous" >
   <i type="int" name="IDIOT">     3</i>
   <i type="int" name="ISPECIAL">     0</i>
   <i type="logical" name="LMUSIC"> F  </i>
   <v name="POMASS">     14.00100000     12.01100000      1.00000000</v>
   <v name="DARWINR">      0.00000000      0.00000000      0.00000000</v>
   <v name="DARWINV">      1.00000000      1.00000000      1.00000000</v>
   <i type="logical" name="LCORR"> T  </i>
  </separator>
  <i type="logical" name="GGA_COMPAT"> T  </i>
  <i type="logical" name="LBERRY"> F  </i>
  <i type="int" name="ICORELEVEL">     0</i>
  <i type="logical" name="LDAU"> F  </i>
  <i type="int" name="I_CONSTRAINED_M">     0</i>
  <separator name="electronic exchange-correlation" >
   <i type="string" name="GGA">PE</i>
   <i type="int" name="VOSKOWN">     0</i>
   <i type="logical" name="LHFCALC"> F  </i>
   <i type="string" name="PRECFOCK"></i>
   <i type="logical" name="LSYMGRAD"> F  </i>
   <i type="logical" name="LHFONE"> F  </i>
   <i type="logical" name="LRHFCALC"> F  </i>
   <i type="logical" name="LTHOMAS"> F  </i>
   <i type="logical" name="LMODELHF"> F  </i>
   <i name="ENCUT4O">     -1.00000000</i>
   <i type="int" name="EXXOEP">     0</i>
   <i type="int" name="FOURORBIT">     0</i>
   <i name="AEXX">      0.00000000</i>
   <i name="HFALPHA">      0.00000000</i>
   <i name="MCALPHA">      0.00000000</i>
   <i name="ALDAX">      1.00000000</i>
   <i name="AGGAX">      1.00000000</i>
   <i name="ALDAC">      1.00000000</i>
   <i name="AGGAC">      1.00000000</i>
   <i type="int" name="NKREDX">     1</i>
   <i type="int" name="NKREDY">     1</i>
   <i type="int" name="NKREDZ">     1</i>
   <i type="logical" name="SHIFTRED"> F  </i>
   <i type="logical" name="ODDONLY"> F  </i>
   <i type="logical" name="EVENONLY"> F  </i>
   <i type="int" name="LMAXFOCK">     0</i>
   <i type="int" name="NMAXFOCKAE">     0</i>
   <i type="logical" name="LFOCKAEDFT"> F  </i>
   <i name="HFSCREEN">      0.00000000</i>
   <i name="HFSCREENC">      0.00000000</i>
   <i type="int" name="NBANDSGWLOW">     0</i>
  </separator>
  <separator name="vdW DFT" >
   <i type="logical" name="LUSE_VDW"> F  </i>
   <i name="Zab_VDW">     -0.84910000</i>
   <i name="PARAM1">      0.12340000</i>
   <i name="PARAM2">      1.00000000</i>
   <i name="PARAM3">      0.00000000</i>
  </separator>
  <separator name="model GW" >
   <i type="int" name="MODEL_GW">     0</i>
   <i name="MODEL_EPS0">     37.88794972</i>
   <i name="MODEL_ALPHA">      1.00000000</i>
  </separator>
  <separator name="linear response parameters" >
   <i type="logical" name="LEPSILON"> F  </i>
   <i type="logical" name="LRPA"> F  </i>
   <i type="logical" name="LNABLA"> F  </i>
   <i type="logical" name="LVEL"> F  </i>
   <i type="int" name="KINTER">     0</i>
   <i name="CSHIFT">      0.10000000</i>
   <i name="OMEGAMAX">     -1.00000000</i>
   <i name="DEG_THRESHOLD">      0.00200000</i>
   <i name="RTIME">     -0.10000000</i>
   <i name="WPLASMAI">      0.00000000</i>
   <v name="DFIELD">      0.00000000      0.00000000      0.00000000</v>
   <v name="WPLASMA">      0.00000000      0.00000000      0.00000000      0.00000000      0.00000000      0.00000000      0.00000000      0.00000000      0.00000000</v>
  </separator>
  <separator name="orbital magnetization" >
   <i type="logical" name="NUCIND"> F  </i>
   <v name="MAGPOS">      0.00000000      0.00000000      0.00000000</v>
   <i type="logical" name="LNICSALL"> T  </i>
   <i type="logical" name="ORBITALMAG"> F  </i>
   <i type="logical" name="LMAGBLOCH"> F  </i>
   <i type="logical" name="LCHIMAG"> F  </i>
   <i type="logical" name="LGAUGE"> T  </i>
   <i type="int" name="MAGATOM">     0</i>
   <v name="MAGDIPOL">      0.00000000      0.00000000      0.00000000</v>
   <v name="AVECCONST">      0.00000000      0.00000000      0.00000000</v>
  </separator>
  <separator name="response functions" >
   <i type="logical" name="LADDER"> F  </i>
   <i type="logical" name="LRPAFORCE"> F  </i>
   <i type="logical" name="LFXC"> F  </i>
   <i type="logical" name="LHARTREE"> T  </i>
   <i type="int" name="IBSE">     0</i>
   <v type="int" name="KPOINT">    -1     0     0     0</v>
   <i type="logical" name="LTCTE"> F  </i>
   <i type="logical" name="LTETE"> F  </i>
   <i type="logical" name="LTRIPLET"> F  </i>
   <i type="logical" name="LFXCEPS"> F  </i>
   <i type="logical" name="LFXHEG"> F  </i>
   <i type="int" name="NATURALO">     2</i>
   <i type="logical" name="L2ORDER"> F  </i>
   <i type="logical" name="LMP2LT"> F  </i>
   <i type="logical" name="LUSEW"> F  </i>
   <i name="ENCUTGW">     -2.00000000</i>
   <i name="ENCUTGWSOFT">     -2.00000000</i>
   <i name="ENCUTLF">     -1.00000000</i>
   <i type="int" name="LMAXMP2">    -1</i>
   <i name="SCISSOR">      0.00000000</i>
   <i type="int" name="NOMEGA">     0</i>
   <i type="int" name="NOMEGAR">     0</i>
   <i type="int" name="NBANDSGW">    -1</i>
   <i type="int" name="NBANDSO">    -1</i>
   <i type="int" name="NBANDSV">    -1</i>
   <i type="int" name="NELM">   200</i>
   <i type="int" name="NELMHF">     1</i>
   <i type="int" name="DIM">     3</i>
   <i type="int" name="ANTIRES">     0</i>
   <i name="OMEGAMAX">    -30.00000000</i>
   <i name="OMEGAMIN">    -30.00000000</i>
   <i name="OMEGATL">   -200.00000000</i>
   <i type="int" name="OMEGAGRID">   140</i>
   <i name="CSHIFT">     -0.10000000</i>
   <i type="logical" name="SELFENERGY"> F  </i>
   <i type="logical" name="LSPECTRAL"> F  </i>
   <i type="logical" name="LSPECTRALGW"> F  </i>
   <i type="logical" name="LSINGLES"> F  </i>
   <i type="logical" name="LFERMIGW"> F  </i>
   <i type="logical" name="ODDONLYGW"> F  </i>
   <i type="logical" name="EVENONLYGW"> F  </i>
   <i type="int" name="NKREDLFX">     1</i>
   <i type="int" name="NKREDLFY">     1</i>
   <i type="int" name="NKREDLFZ">     1</i>
   <i type="int" name="MAXMEM">  2800</i>
   <i type="int" name="TELESCOPE">     0</i>
   <i type="int" name="TAUPAR">     1</i>
   <i type="int" name="OMEGAPAR">    -1</i>
   <i name="LAMBDA">      1.00000000</i>
  </separator>
  <separator name="External order field" >
   <i name="OFIELD_KAPPA">      0.00000000</i>
   <v name="OFIELD_K">      0.00000000      0.00000000      0.00000000</v>
   <i name="OFIELD_Q6_NEAR">      0.00000000</i>
   <i name="OFIELD_Q6_FAR">      0.00000000</i>
   <i name="OFIELD_A">      0.00000000</i>
  </separator>
  <separator name="solvation model" >
   <i type="logical" name="LSOL"> F  </i>
  </separator>
 </parameters>
 <atominfo>
  <atoms>     144 </atoms>
  <types>       3 </types>
  <array name="atoms" >
   <dimension dim="1">ion</dimension>
   <field type="string">element</field>
   <field type="int">atomtype</field>
   <set>
    <rc><c>N </c><c>   1</c></rc>
    <rc><c>N </c><c>   1</c></rc>
    <rc><c>N </c><c>   1</c></rc>
    <rc><c>N </c><c>   1</c></rc>
    <rc><c>N </c><c>   1</c></rc>
    <rc><c>N </c><c>   1</c></rc>
    <rc><c>N </c><c>   1</c></rc>
    <rc><c>N </c><c>   1</c></rc>
    <rc><c>N </c><c>   1</c></rc>
    <rc><c>N </c><c>   1</c></rc>
    <rc><c>N </c><c>   1</c></rc>
    <rc><c>N </c><c>   1</c></rc>
    <rc><c>N </c><c>   1</c></rc>
    <rc><c>N </c><c>   1</c></rc>
    <rc><c>N </c><c>   1</c></rc>
    <rc><c>N </c><c>   1</c></rc>
    <rc><c>N </c><c>   1</c></rc>
    <rc><c>N </c><c>   1</c></rc>
    <rc><c>N </c><c>   1</c></rc>
    <rc><c>N </c><c>   1</c></rc>
    <rc><c>N </c><c>   1</c></rc>
    <rc><c>N </c><c>   1</c></rc>
    <rc><c>N </c><c>   1</c></rc>
    <rc><c>N </c><c>   1</c></rc>
    <rc><c>C </c><c>   2</c></rc>
    <rc><c>C </c><c>   2</c></rc>
    <rc><c>C </c><c>   2</c></rc>
    <rc><c>C </c><c>   2</c></rc>
    <rc><c>C </c><c>   2</c></rc>
    <rc><c>C </c><c>   2</c></rc>
    <rc><c>C </c><c>   2</c></rc>
    <rc><c>C </c><c>   2</c></rc>
    <rc><c>C </c><c>   2</c></rc>
    <rc><c>C </c><c>   2</c></rc>
    <rc><c>C </c><c>   2</c></rc>
    <rc><c>C </c><c>   2</c></rc>
    <rc><c>C </c><c>   2</c></rc>
    <rc><c>C </c><c>   2</c></rc>
    <rc><c>C </c><c>   2</c></rc>
    <rc><c>C </c><c>   2</c></rc>
    <rc><c>C </c><c>   2</c></rc>
    <rc><c>C </c><c>   2</c></rc>
    <rc><c>C </c><c>   2</c></rc>
    <rc><c>C </c><c>   2</c></rc>
    <rc><c>C </c><c>   2</c></rc>
    <rc><c>C </c><c>   2</c></rc>
    <rc><c>C </c><c>   2</c></rc>
    <rc><c>C </c><c>   2</c></rc>
    <rc><c>C </c><c>   2</c></rc>
    <rc><c>C </c><c>   2</c></rc>
    <rc><c>C </c><c>   2</c></rc>
    <rc><c>C </c><c>   2</c></rc>
    <rc><c>C </c><c>   2</c></rc>
    <rc><c>C </c><c>   2</c></rc>
    <rc><c>C </c><c>   2</c></rc>
    <rc><c>C </c><c>   2</c></rc>
    <rc><c>C </c><c>   2</c></rc>
    <rc><c>C </c><c>   2</c></rc>
    <rc><c>C </c><c>   2</c></rc>
    <rc><c>C </c><c>   2</c></rc>
    <rc><c>C </c><c>   2</c></rc>
    <rc><c>C </c><c>   2</c></rc>
    <rc><c>C </c><c>   2</c></rc>
    <rc><c>C </c><c>   2</c></rc>
    <rc><c>C </c><c>   2</c></rc>
    <rc><c>C </c><c>   2</c></rc>
    <rc><c>C </c><c>   2</c></rc>
    <rc><c>C </c><c>   2</c></rc>
    <rc><c>C </c><c>   2</c></rc>
    <rc><c>C </c><c>   2</c></rc>
    <rc><c>C </c><c>   2</c></rc>
    <rc><c>C </c><c>   2</c></rc>
    <rc><c>C </c><c>   2</c></rc>
    <rc><c>C </c><c>   2</c></rc>
    <rc><c>C </c><c>   2</c></rc>
    <rc><c>C </c><c>   2</c></rc>
    <rc><c>C </c><c>   2</c></rc>
    <rc><c>C </c><c>   2</c></rc>
    <rc><c>C </c><c>   2</c></rc>
    <rc><c>C </c><c>   2</c></rc>
    <rc><c>C </c><c>   2</c></rc>
    <rc><c>C </c><c>   2</c></rc>
    <rc><c>C </c><c>   2</c></rc>
    <rc><c>C </c><c>   2</c></rc>
    <rc><c>H </c><c>   3</c></rc>
    <rc><c>H </c><c>   3</c></rc>
    <rc><c>H </c><c>   3</c></rc>
    <rc><c>H </c><c>   3</c></rc>
    <rc><c>H </c><c>   3</c></rc>
    <rc><c>H </c><c>   3</c></rc>
    <rc><c>H </c><c>   3</c></rc>
    <rc><c>H </c><c>   3</c></rc>
    <rc><c>H </c><c>   3</c></rc>
    <rc><c>H </c><c>   3</c></rc>
    <rc><c>H </c><c>   3</c></rc>
    <rc><c>H </c><c>   3</c></rc>
    <rc><c>H </c><c>   3</c></rc>
    <rc><c>H </c><c>   3</c></rc>
    <rc><c>H </c><c>   3</c></rc>
    <rc><c>H </c><c>   3</c></rc>
    <rc><c>H </c><c>   3</c></rc>
    <rc><c>H </c><c>   3</c></rc>
    <rc><c>H </c><c>   3</c></rc>
    <rc><c>H </c><c>   3</c></rc>
    <rc><c>H </c><c>   3</c></rc>
    <rc><c>H </c><c>   3</c></rc>
    <rc><c>H </c><c>   3</c></rc>
    <rc><c>H </c><c>   3</c></rc>
    <rc><c>H </c><c>   3</c></rc>
    <rc><c>H </c><c>   3</c></rc>
    <rc><c>H </c><c>   3</c></rc>
    <rc><c>H </c><c>   3</c></rc>
    <rc><c>H </c><c>   3</c></rc>
    <rc><c>H </c><c>   3</c></rc>
    <rc><c>H </c><c>   3</c></rc>
    <rc><c>H </c><c>   3</c></rc>
    <rc><c>H </c><c>   3</c></rc>
    <rc><c>H </c><c>   3</c></rc>
    <rc><c>H </c><c>   3</c></rc>
    <rc><c>H </c><c>   3</c></rc>
    <rc><c>H </c><c>   3</c></rc>
    <rc><c>H </c><c>   3</c></rc>
    <rc><c>H </c><c>   3</c></rc>
    <rc><c>H </c><c>   3</c></rc>
    <rc><c>H </c><c>   3</c></rc>
    <rc><c>H </c><c>   3</c></rc>
    <rc><c>H </c><c>   3</c></rc>
    <rc><c>H </c><c>   3</c></rc>
    <rc><c>H </c><c>   3</c></rc>
    <rc><c>H </c><c>   3</c></rc>
    <rc><c>H </c><c>   3</c></rc>
    <rc><c>H </c><c>   3</c></rc>
    <rc><c>H </c><c>   3</c></rc>
    <rc><c>H </c><c>   3</c></rc>
    <rc><c>H </c><c>   3</c></rc>
    <rc><c>H </c><c>   3</c></rc>
    <rc><c>H </c><c>   3</c></rc>
    <rc><c>H </c><c>   3</c></rc>
    <rc><c>H </c><c>   3</c></rc>
    <rc><c>H </c><c>   3</c></rc>
    <rc><c>H </c><c>   3</c></rc>
    <rc><c>H </c><c>   3</c></rc>
    <rc><c>H </c><c>   3</c></rc>
    <rc><c>H </c><c>   3</c></rc>
   </set>
  </array>
  <array name="atomtypes" >
   <dimension dim="1">type</dimension>
   <field type="int">atomspertype</field>
   <field type="string">element</field>
   <field>mass</field>
   <field>valence</field>
   <field type="string">pseudopotential</field>
   <set>
    <rc><c>  24</c><c>N </c><c>     14.00100000</c><c>      5.00000000</c><c>  PAW_PBE N 08Apr2002                   </c></rc>
    <rc><c>  60</c><c>C </c><c>     12.01100000</c><c>      4.00000000</c><c>  PAW_PBE C 08Apr2002                   </c></rc>
    <rc><c>  60</c><c>H </c><c>      1.00000000</c><c>      1.00000000</c><c>  PAW_PBE H 15Jun2001                   </c></rc>
   </set>
  </array>
 </atominfo>
 <structure name="initialpos" >
  <crystal>
   <varray name="basis" >
    <v>      22.90402873       0.04185314       0.00000000 </v>
    <v>     -11.40609919      19.82961256       0.00000000 </v>
    <v>       0.00000000       0.00000000      20.00000000 </v>
   </varray>
   <i name="volume">   9093.10793377 </i>
   <varray name="rec_basis" >
    <v>       0.04361460       0.02508735       0.00000000 </v>
    <v>      -0.00009205       0.05037668       0.00000000 </v>
    <v>       0.00000000       0.00000000       0.05000000 </v>
   </varray>
  </crystal>
  <varray name="positions" >
   <v>       0.91772045       0.07778765       0.36711914 </v>
   <v>       0.91834067       0.07931354       0.61376098 </v>
   <v>       0.84362227       0.14220312       0.36669934 </v>
   <v>       0.84379663       0.14319053       0.61334907 </v>
   <v>       0.83212579       0.36493462       0.36554144 </v>
   <v>       0.62733683       0.15886353       0.36821430 </v>
   <v>       0.83762012       0.36609223       0.61200849 </v>
   <v>       0.62359136       0.15216311       0.61249100 </v>
   <v>       0.84718576       0.71816495       0.36881496 </v>
   <v>       0.92025439       0.85594788       0.36886532 </v>
   <v>       0.27680989       0.15197125       0.36915614 </v>
   <v>       0.13925238       0.07847721       0.36897954 </v>
   <v>       0.83867711       0.48716651       0.36626635 </v>
   <v>       0.62799933       0.48873306       0.36701282 </v>
   <v>       0.50556821       0.37315898       0.36639788 </v>
   <v>       0.50422889       0.15495484       0.36621480 </v>
   <v>       0.84630822       0.71753440       0.61525611 </v>
   <v>       0.91946354       0.85533350       0.61591485 </v>
   <v>       0.27733278       0.15025876       0.61570806 </v>
   <v>       0.13934091       0.07624271       0.61587746 </v>
   <v>       0.84453833       0.48874346       0.61305329 </v>
   <v>       0.62767754       0.48821964       0.61381254 </v>
   <v>       0.50678375       0.36627850       0.61121093 </v>
   <v>       0.50700021       0.15743782       0.61347943 </v>
   <v>       0.95541988       0.03917354       0.49096650 </v>
   <v>       0.92126358       0.96844259       0.49135732 </v>
   <v>       0.02606885       0.07415284       0.49146753 </v>
   <v>       0.89897459       0.09294215       0.42931290 </v>
   <v>       0.91741512       0.07639020       0.49046627 </v>
   <v>       0.89923708       0.09365088       0.55137946 </v>
   <v>       0.73601310       0.14734088       0.49001905 </v>
   <v>       0.80692523       0.18269533       0.48979834 </v>
   <v>       0.84215379       0.25367367       0.48928996 </v>
   <v>       0.86282192       0.12788634       0.42910504 </v>
   <v>       0.86295033       0.12844475       0.55114727 </v>
   <v>       0.84470243       0.14520624       0.49001347 </v>
   <v>       0.80719503       0.28955130       0.48900711 </v>
   <v>       0.73675511       0.25276240       0.48919969 </v>
   <v>       0.70011931       0.18216957       0.48961341 </v>
   <v>       0.83968299       0.39686226       0.42798270 </v>
   <v>       0.83618625       0.36430635       0.48880167 </v>
   <v>       0.62552818       0.15355358       0.48958130 </v>
   <v>       0.59370431       0.15150561       0.42853380 </v>
   <v>       0.84245765       0.39757180       0.54985488 </v>
   <v>       0.59299578       0.14925447       0.55058904 </v>
   <v>       0.95643209       0.93267179       0.49237264 </v>
   <v>       0.02704485       0.96899149       0.49296541 </v>
   <v>       0.06253673       0.03974335       0.49243710 </v>
   <v>       0.70340495       0.53520631       0.49054708 </v>
   <v>       0.74024043       0.50125866       0.49007879 </v>
   <v>       0.81076405       0.53482365       0.49046248 </v>
   <v>       0.84544630       0.60548002       0.49131029 </v>
   <v>       0.81000394       0.64121738       0.49167709 </v>
   <v>       0.73911755       0.60580205       0.49131639 </v>
   <v>       0.45957475       0.18682260       0.48992235 </v>
   <v>       0.49330202       0.25738993       0.48864611 </v>
   <v>       0.45952532       0.29439324       0.48939505 </v>
   <v>       0.38907245       0.25885358       0.49067737 </v>
   <v>       0.35351669       0.18788404       0.49175313 </v>
   <v>       0.38902376       0.15226215       0.49157071 </v>
   <v>       0.86557704       0.75162367       0.43112231 </v>
   <v>       0.90130893       0.82255721       0.43126650 </v>
   <v>       0.24335288       0.13267377       0.43143302 </v>
   <v>       0.17252986       0.09661455       0.43142251 </v>
   <v>       0.83957047       0.48873312       0.48968141 </v>
   <v>       0.84103941       0.45914916       0.42843067 </v>
   <v>       0.50527607       0.36904647       0.48956085 </v>
   <v>       0.53424306       0.40157446       0.42884781 </v>
   <v>       0.59632965       0.46234921       0.42915303 </v>
   <v>       0.62878306       0.48965828       0.49028438 </v>
   <v>       0.53184243       0.15102029       0.42884109 </v>
   <v>       0.50491795       0.15721549       0.49002930 </v>
   <v>       0.91915961       0.85757950       0.49238807 </v>
   <v>       0.90096258       0.82225828       0.55333595 </v>
   <v>       0.86518749       0.75131719       0.55311700 </v>
   <v>       0.84732952       0.71630682       0.49203589 </v>
   <v>       0.13752860       0.07774181       0.49251157 </v>
   <v>       0.17270702       0.09553845       0.55354206 </v>
   <v>       0.24357535       0.13171209       0.55345871 </v>
   <v>       0.27853921       0.15037822       0.49238358 </v>
   <v>       0.84388049       0.45990421       0.55036397 </v>
   <v>       0.59585782       0.46156350       0.55122473 </v>
   <v>       0.53397073       0.40057133       0.55100120 </v>
   <v>       0.53361562       0.15352654       0.55088402 </v>
   <v>       0.05312744       0.12915151       0.49114620 </v>
   <v>       0.86631845       0.94069531       0.49090414 </v>
   <v>       0.93481298       0.04453723       0.37152519 </v>
   <v>       0.87967346       0.06072637       0.33291737 </v>
   <v>       0.93570221       0.04625129       0.60981954 </v>
   <v>       0.88041899       0.06245644       0.64808451 </v>
   <v>       0.70940567       0.09232783       0.49033694 </v>
   <v>       0.89711133       0.28048662       0.48912241 </v>
   <v>       0.82464345       0.17391389       0.37110109 </v>
   <v>       0.88201495       0.16087525       0.33281673 </v>
   <v>       0.88219612       0.16214483       0.64722674 </v>
   <v>       0.82466130       0.17473996       0.60865174 </v>
   <v>       0.70913856       0.28023539       0.48889942 </v>
   <v>       0.86428437       0.39678914       0.33021619 </v>
   <v>       0.83566113       0.32243562       0.36862538 </v>
   <v>       0.65596600       0.13675628       0.36380771 </v>
   <v>       0.60341022       0.15982630       0.32607600 </v>
   <v>       0.84218393       0.32423030       0.60797632 </v>
   <v>       0.87073627       0.39849678       0.64641825 </v>
   <v>       0.66179521       0.14176357       0.60944720 </v>
   <v>       0.58984127       0.12370590       0.64842529 </v>
   <v>       0.05492921       0.94177530       0.49366961 </v>
   <v>       0.90038196       0.63347790       0.49152742 </v>
   <v>       0.71231222       0.63412657       0.49164056 </v>
   <v>       0.71285144       0.44628174       0.48939331 </v>
   <v>       0.36092570       0.28583712       0.49075551 </v>
   <v>       0.36092952       0.09727136       0.49274634 </v>
   <v>       0.54820680       0.28473102       0.48765692 </v>
   <v>       0.83140606       0.66813361       0.37277323 </v>
   <v>       0.88498218       0.74010299       0.33445895 </v>
   <v>       0.94091723       0.90674641       0.37305281 </v>
   <v>       0.88154212       0.83727038       0.33536866 </v>
   <v>       0.32722333       0.17022476       0.37328737 </v>
   <v>       0.25651760       0.11398485       0.33482430 </v>
   <v>       0.08886987       0.06049781       0.37300597 </v>
   <v>       0.15967226       0.11728270       0.33552555 </v>
   <v>       0.82832878       0.52537544       0.37120259 </v>
   <v>       0.80495421       0.45158241       0.33425071 </v>
   <v>       0.59492518       0.48731144       0.33201172 </v>
   <v>       0.66782215       0.53629996       0.37081546 </v>
   <v>       0.46575238       0.32559664       0.37040328 </v>
   <v>       0.53999986       0.37400591       0.33339976 </v>
   <v>       0.49119702       0.11344756       0.33726966 </v>
   <v>       0.46247025       0.15936368       0.37276087 </v>
   <v>       0.88398837       0.73898695       0.64979066 </v>
   <v>       0.83016544       0.66744630       0.61098749 </v>
   <v>       0.93998202       0.90613479       0.61195728 </v>
   <v>       0.88057185       0.83633972       0.64921369 </v>
   <v>       0.25714341       0.11173487       0.64948520 </v>
   <v>       0.32764369       0.16799543       0.61108095 </v>
   <v>       0.08896978       0.05830603       0.61194654 </v>
   <v>       0.15972953       0.11431369       0.65011719 </v>
   <v>       0.83511508       0.52764747       0.60907067 </v>
   <v>       0.81166172       0.45385550       0.64612574 </v>
   <v>       0.67290737       0.53100355       0.60765166 </v>
   <v>       0.59878285       0.49940047       0.64429593 </v>
   <v>       0.45596284       0.34119779       0.61524421 </v>
   <v>       0.53106364       0.39080204       0.65337368 </v>
   <v>       0.47048653       0.17020947       0.60867937 </v>
   <v>       0.54358157       0.19082513       0.64491947 </v>
  </varray>
 </structure>
 <calculation>
  <scstep>
   <time name="dav">  222.66  224.50</time>
   <time name="total">  222.84  224.68</time>
   <energy>
    <i name="alphaZ">     87.55330227 </i>
    <i name="ewald">  54063.48406586 </i>
    <i name="hartreedc"> -67426.40476972 </i>
    <i name="XCdc">   1487.63763975 </i>
    <i name="pawpsdc">  38793.71298533 </i>
    <i name="pawaedc"> -38871.59102153 </i>
    <i name="eentropy">     -0.00000000 </i>
    <i name="bandstr">  -5021.69416858 </i>
    <i name="atom">  15926.92748007 </i>
    <i name="e_fr_energy">   -960.37448654 </i>
    <i name="e_wo_entrp">   -960.37448654 </i>
    <i name="e_0_energy">   -960.37448654 </i>
   </energy>
  </scstep>
  <scstep>
   <time name="dav">  238.46  240.38</time>
   <time name="total">  238.46  240.40</time>
   <energy>
    <i name="e_fr_energy">   -961.20451007 </i>
    <i name="e_wo_entrp">   -961.20451007 </i>
    <i name="e_0_energy">   -961.20451007 </i>
   </energy>
  </scstep>
  <scstep>
   <time name="dav">  269.90  272.11</time>
   <time name="total">  269.92  272.12</time>
   <energy>
    <i name="e_fr_energy">   -961.22617990 </i>
    <i name="e_wo_entrp">   -961.22617990 </i>
    <i name="e_0_energy">   -961.22617990 </i>
   </energy>
  </scstep>
  <scstep>
   <time name="dav">  243.17  245.19</time>
   <time name="total">  243.18  245.20</time>
   <energy>
    <i name="e_fr_energy">   -961.22653925 </i>
    <i name="e_wo_entrp">   -961.22653925 </i>
    <i name="e_0_energy">   -961.22653925 </i>
   </energy>
  </scstep>
  <scstep>
   <time name="dav">  242.30  244.29</time>
   <time name="total">  242.32  244.31</time>
   <energy>
    <i name="e_fr_energy">   -961.22655636 </i>
    <i name="e_wo_entrp">   -961.22655636 </i>
    <i name="e_0_energy">   -961.22655636 </i>
   </energy>
  </scstep>
  <scstep>
   <time name="dav">  185.12  186.63</time>
   <time name="total">  185.14  186.64</time>
   <energy>
    <i name="alphaZ">     87.55330227 </i>
    <i name="ewald">  54063.48406586 </i>
    <i name="hartreedc"> -67426.40476972 </i>
    <i name="XCdc">   1487.63763975 </i>
    <i name="pawpsdc">  38793.71298533 </i>
    <i name="pawaedc"> -38871.59102153 </i>
    <i name="eentropy">     -0.00000000 </i>
    <i name="bandstr">  -5022.54623904 </i>
    <i name="atom">  15926.92748007 </i>
    <i name="e_fr_energy">   -961.22655700 </i>
    <i name="e_wo_entrp">   -961.22655700 </i>
    <i name="e_0_energy">   -961.22655700 </i>
   </energy>
  </scstep>
  <structure>
   <crystal>
    <varray name="basis" >
     <v>      22.90402873       0.04185314       0.00000000 </v>
     <v>     -11.40609919      19.82961256       0.00000000 </v>
     <v>       0.00000000       0.00000000      20.00000000 </v>
    </varray>
    <i name="volume">   9093.10793377 </i>
    <varray name="rec_basis" >
     <v>       0.04361460       0.02508735       0.00000000 </v>
     <v>      -0.00009205       0.05037668       0.00000000 </v>
     <v>       0.00000000       0.00000000       0.05000000 </v>
    </varray>
   </crystal>
   <varray name="positions" >
    <v>       0.91772045       0.07778765       0.36711914 </v>
    <v>       0.91834067       0.07931354       0.61376098 </v>
    <v>       0.84362227       0.14220312       0.36669934 </v>
    <v>       0.84379663       0.14319053       0.61334907 </v>
    <v>       0.83212579       0.36493462       0.36554144 </v>
    <v>       0.62733683       0.15886353       0.36821430 </v>
    <v>       0.83762012       0.36609223       0.61200849 </v>
    <v>       0.62359136       0.15216311       0.61249100 </v>
    <v>       0.84718576       0.71816495       0.36881496 </v>
    <v>       0.92025439       0.85594788       0.36886532 </v>
    <v>       0.27680989       0.15197125       0.36915614 </v>
    <v>       0.13925238       0.07847721       0.36897954 </v>
    <v>       0.83867711       0.48716651       0.36626635 </v>
    <v>       0.62799933       0.48873306       0.36701282 </v>
    <v>       0.50556821       0.37315898       0.36639788 </v>
    <v>       0.50422889       0.15495484       0.36621480 </v>
    <v>       0.84630822       0.71753440       0.61525611 </v>
    <v>       0.91946354       0.85533350       0.61591485 </v>
    <v>       0.27733278       0.15025876       0.61570806 </v>
    <v>       0.13934091       0.07624271       0.61587746 </v>
    <v>       0.84453833       0.48874346       0.61305329 </v>
    <v>       0.62767754       0.48821964       0.61381254 </v>
    <v>       0.50678375       0.36627850       0.61121093 </v>
    <v>       0.50700021       0.15743782       0.61347943 </v>
    <v>       0.95541988       0.03917354       0.49096650 </v>
    <v>       0.92126358       0.96844259       0.49135732 </v>
    <v>       0.02606885       0.07415284       0.49146753 </v>
    <v>       0.89897459       0.09294215       0.42931290 </v>
    <v>       0.91741512       0.07639020       0.49046627 </v>
    <v>       0.89923708       0.09365088       0.55137946 </v>
    <v>       0.73601310       0.14734088       0.49001905 </v>
    <v>       0.80692523       0.18269533       0.48979834 </v>
    <v>       0.84215379       0.25367367       0.48928996 </v>
    <v>       0.86282192       0.12788634       0.42910504 </v>
    <v>       0.86295033       0.12844475       0.55114727 </v>
    <v>       0.84470243       0.14520624       0.49001347 </v>
    <v>       0.80719503       0.28955130       0.48900711 </v>
    <v>       0.73675511       0.25276240       0.48919969 </v>
    <v>       0.70011931       0.18216957       0.48961341 </v>
    <v>       0.83968299       0.39686226       0.42798270 </v>
    <v>       0.83618625       0.36430635       0.48880167 </v>
    <v>       0.62552818       0.15355358       0.48958130 </v>
    <v>       0.59370431       0.15150561       0.42853380 </v>
    <v>       0.84245765       0.39757180       0.54985488 </v>
    <v>       0.59299578       0.14925447       0.55058904 </v>
    <v>       0.95643209       0.93267179       0.49237264 </v>
    <v>       0.02704485       0.96899149       0.49296541 </v>
    <v>       0.06253673       0.03974335       0.49243710 </v>
    <v>       0.70340495       0.53520631       0.49054708 </v>
    <v>       0.74024043       0.50125866       0.49007879 </v>
    <v>       0.81076405       0.53482365       0.49046248 </v>
    <v>       0.84544630       0.60548002       0.49131029 </v>
    <v>       0.81000394       0.64121738       0.49167709 </v>
    <v>       0.73911755       0.60580205       0.49131639 </v>
    <v>       0.45957475       0.18682260       0.48992235 </v>
    <v>       0.49330202       0.25738993       0.48864611 </v>
    <v>       0.45952532       0.29439324       0.48939505 </v>
    <v>       0.38907245       0.25885358       0.49067737 </v>
    <v>       0.35351669       0.18788404       0.49175313 </v>
    <v>       0.38902376       0.15226215       0.49157071 </v>
    <v>       0.86557704       0.75162367       0.43112231 </v>
    <v>       0.90130893       0.82255721       0.43126650 </v>
    <v>       0.24335288       0.13267377       0.43143302 </v>
    <v>       0.17252986       0.09661455       0.43142251 </v>
    <v>       0.83957047       0.48873312       0.48968141 </v>
    <v>       0.84103941       0.45914916       0.42843067 </v>
    <v>       0.50527607       0.36904647       0.48956085 </v>
    <v>       0.53424306       0.40157446       0.42884781 </v>
    <v>       0.59632965       0.46234921       0.42915303 </v>
    <v>       0.62878306       0.48965828       0.49028438 </v>
    <v>       0.53184243       0.15102029       0.42884109 </v>
    <v>       0.50491795       0.15721549       0.49002930 </v>
    <v>       0.91915961       0.85757950       0.49238807 </v>
    <v>       0.90096258       0.82225828       0.55333595 </v>
    <v>       0.86518749       0.75131719       0.55311700 </v>
    <v>       0.84732952       0.71630682       0.49203589 </v>
    <v>       0.13752860       0.07774181       0.49251157 </v>
    <v>       0.17270702       0.09553845       0.55354206 </v>
    <v>       0.24357535       0.13171209       0.55345871 </v>
    <v>       0.27853921       0.15037822       0.49238358 </v>
    <v>       0.84388049       0.45990421       0.55036397 </v>
    <v>       0.59585782       0.46156350       0.55122473 </v>
    <v>       0.53397073       0.40057133       0.55100120 </v>
    <v>       0.53361562       0.15352654       0.55088402 </v>
    <v>       0.05312744       0.12915151       0.49114620 </v>
    <v>       0.86631845       0.94069531       0.49090414 </v>
    <v>       0.93481298       0.04453723       0.37152519 </v>
    <v>       0.87967346       0.06072637       0.33291737 </v>
    <v>       0.93570221       0.04625129       0.60981954 </v>
    <v>       0.88041899       0.06245644       0.64808451 </v>
    <v>       0.70940567       0.09232783       0.49033694 </v>
    <v>       0.89711133       0.28048662       0.48912241 </v>
    <v>       0.82464345       0.17391389       0.37110109 </v>
    <v>       0.88201495       0.16087525       0.33281673 </v>
    <v>       0.88219612       0.16214483       0.64722674 </v>
    <v>       0.82466130       0.17473996       0.60865174 </v>
    <v>       0.70913856       0.28023539       0.48889942 </v>
    <v>       0.86428437       0.39678914       0.33021619 </v>
    <v>       0.83566113       0.32243562       0.36862538 </v>
    <v>       0.65596600       0.13675628       0.36380771 </v>
    <v>       0.60341022       0.15982630       0.32607600 </v>
    <v>       0.84218393       0.32423030       0.60797632 </v>
    <v>       0.87073627       0.39849678       0.64641825 </v>
    <v>       0.66179521       0.14176357       0.60944720 </v>
    <v>       0.58984127       0.12370590       0.64842529 </v>
    <v>       0.05492921       0.94177530       0.49366961 </v>
    <v>       0.90038196       0.63347790       0.49152742 </v>
    <v>       0.71231222       0.63412657       0.49164056 </v>
    <v>       0.71285144       0.44628174       0.48939331 </v>
    <v>       0.36092570       0.28583712       0.49075551 </v>
    <v>       0.36092952       0.09727136       0.49274634 </v>
    <v>       0.54820680       0.28473102       0.48765692 </v>
    <v>       0.83140606       0.66813361       0.37277323 </v>
    <v>       0.88498218       0.74010299       0.33445895 </v>
    <v>       0.94091723       0.90674641       0.37305281 </v>
    <v>       0.88154212       0.83727038       0.33536866 </v>
    <v>       0.32722333       0.17022476       0.37328737 </v>
    <v>       0.25651760       0.11398485       0.33482430 </v>
    <v>       0.08886987       0.06049781       0.37300597 </v>
    <v>       0.15967226       0.11728270       0.33552555 </v>
    <v>       0.82832878       0.52537544       0.37120259 </v>
    <v>       0.80495421       0.45158241       0.33425071 </v>
    <v>       0.59492518       0.48731144       0.33201172 </v>
    <v>       0.66782215       0.53629996       0.37081546 </v>
    <v>       0.46575238       0.32559664       0.37040328 </v>
    <v>       0.53999986       0.37400591       0.33339976 </v>
    <v>       0.49119702       0.11344756       0.33726966 </v>
    <v>       0.46247025       0.15936368       0.37276087 </v>
    <v>       0.88398837       0.73898695       0.64979066 </v>
    <v>       0.83016544       0.66744630       0.61098749 </v>
    <v>       0.93998202       0.90613479       0.61195728 </v>
    <v>       0.88057185       0.83633972       0.64921369 </v>
    <v>       0.25714341       0.11173487       0.64948520 </v>
    <v>       0.32764369       0.16799543       0.61108095 </v>
    <v>       0.08896978       0.05830603       0.61194654 </v>
    <v>       0.15972953       0.11431369       0.65011719 </v>
    <v>       0.83511508       0.52764747       0.60907067 </v>
    <v>       0.81166172       0.45385550       0.64612574 </v>
    <v>       0.67290737       0.53100355       0.60765166 </v>
    <v>       0.59878285       0.49940047       0.64429593 </v>
    <v>       0.45596284       0.34119779       0.61524421 </v>
    <v>       0.53106364       0.39080204       0.65337368 </v>
    <v>       0.47048653       0.17020947       0.60867937 </v>
    <v>       0.54358157       0.19082513       0.64491947 </v>
   </varray>
  </structure>
  <varray name="forces" >
   <v>      -0.00129488       0.00056639      -0.00014159 </v>
   <v>      -0.00010863       0.00237003      -0.00004265 </v>
   <v>       0.00080946      -0.00011180       0.00017682 </v>
   <v>       0.00022886       0.00141575       0.00055020 </v>
   <v>      -0.00102412       0.00159890       0.00101927 </v>
   <v>      -0.00509063       0.00146732      -0.00067644 </v>
   <v>      -0.00048974      -0.00049766       0.00046742 </v>
   <v>      -0.00286948      -0.00014649       0.00008623 </v>
   <v>      -0.00065094       0.00040694      -0.00079744 </v>
   <v>       0.00211397      -0.00132857       0.00004777 </v>
   <v>      -0.00181439       0.00127051      -0.00117630 </v>
   <v>      -0.00078379       0.00104900       0.00217650 </v>
   <v>      -0.00048531       0.00052911      -0.00055844 </v>
   <v>       0.00128721       0.00041319       0.00136413 </v>
   <v>      -0.00036448       0.00101282       0.00415206 </v>
   <v>       0.00255149       0.00178888      -0.00060965 </v>
   <v>      -0.00010649       0.00146223      -0.00584885 </v>
   <v>       0.00117802      -0.00062034      -0.00071759 </v>
   <v>       0.00105648      -0.00174188      -0.00212433 </v>
   <v>       0.00091979      -0.00109261      -0.00118765 </v>
   <v>       0.00059858      -0.00138281      -0.00232354 </v>
   <v>       0.00012241      -0.00044056       0.00121956 </v>
   <v>       0.00192694      -0.00101814       0.00182348 </v>
   <v>       0.00043437      -0.00011170      -0.00148841 </v>
   <v>       0.00056335       0.00310702       0.00020144 </v>
   <v>       0.00123372       0.00187868       0.00051338 </v>
   <v>      -0.00029885       0.00115995      -0.00062982 </v>
   <v>       0.00058031      -0.00009205      -0.00101350 </v>
   <v>       0.00132372       0.00047769      -0.00064991 </v>
   <v>      -0.00013084       0.00093368      -0.00132836 </v>
   <v>       0.00092824       0.00074329       0.00088156 </v>
   <v>       0.00001090      -0.00159647      -0.00004397 </v>
   <v>      -0.00159855      -0.00072829       0.00004836 </v>
   <v>      -0.00037719      -0.00075919      -0.00009535 </v>
   <v>      -0.00025519      -0.00049061       0.00060845 </v>
   <v>      -0.00201245      -0.00120852       0.00072907 </v>
   <v>      -0.00116535       0.00053209       0.00027835 </v>
   <v>      -0.00013806       0.00009596      -0.00024604 </v>
   <v>      -0.00023853       0.00197606       0.00085121 </v>
   <v>       0.00049519       0.00122122       0.00253820 </v>
   <v>       0.00009779      -0.00006636       0.00009316 </v>
   <v>      -0.00005667       0.00227141      -0.00340118 </v>
   <v>      -0.00316809       0.00316783       0.00030625 </v>
   <v>      -0.00104145       0.00031924      -0.00132404 </v>
   <v>       0.00119387      -0.00128918      -0.00078034 </v>
   <v>       0.00109433      -0.00106583       0.00023952 </v>
   <v>      -0.00008450      -0.00053381       0.00002985 </v>
   <v>      -0.00117968      -0.00020362      -0.00064155 </v>
   <v>       0.00203937       0.00068651       0.00055967 </v>
   <v>      -0.00040633       0.00114801      -0.00044608 </v>
   <v>      -0.00017909      -0.00155395      -0.00089468 </v>
   <v>      -0.00194106      -0.00047121       0.00009951 </v>
   <v>      -0.00165442      -0.00005894      -0.00024957 </v>
   <v>       0.00055533       0.00022032       0.00008145 </v>
   <v>       0.00159623       0.00135932      -0.00025712 </v>
   <v>      -0.00027075      -0.00155603       0.00111011 </v>
   <v>      -0.00026671       0.00175535       0.00138526 </v>
   <v>       0.00135565       0.00246763       0.00006616 </v>
   <v>      -0.00029050      -0.00062633      -0.00062949 </v>
   <v>      -0.00062226       0.00044832      -0.00096937 </v>
   <v>       0.00063808       0.00035189      -0.00251574 </v>
   <v>       0.00171080      -0.00199781       0.00044682 </v>
   <v>      -0.00387917       0.00064828       0.00149396 </v>
   <v>      -0.00091098      -0.00001425      -0.00078390 </v>
   <v>       0.00082877      -0.00011136       0.00148479 </v>
   <v>       0.00110161       0.00100017       0.00134019 </v>
   <v>       0.00123836      -0.00137431      -0.00152003 </v>
   <v>      -0.00120526      -0.00089912       0.00163431 </v>
   <v>      -0.00228226      -0.00151849       0.00044890 </v>
   <v>       0.00100000       0.00057552      -0.00284847 </v>
   <v>       0.00471239       0.00260757       0.00310920 </v>
   <v>       0.00148424      -0.00083497      -0.00035271 </v>
   <v>      -0.00004961      -0.00040249      -0.00149910 </v>
   <v>       0.00019604       0.00105311       0.00060814 </v>
   <v>      -0.00006673       0.00100711      -0.00104822 </v>
   <v>       0.00002558       0.00068054      -0.00216272 </v>
   <v>       0.00141589      -0.00143863      -0.00187770 </v>
   <v>       0.00232991       0.00061724      -0.00265444 </v>
   <v>       0.00146316       0.00032889       0.00079598 </v>
   <v>      -0.00214985       0.00062351      -0.00008239 </v>
   <v>      -0.00001852       0.00042608       0.00014713 </v>
   <v>      -0.00021890      -0.00068122       0.00287714 </v>
   <v>       0.00004944      -0.00212218       0.00517677 </v>
   <v>      -0.00212683      -0.00012998       0.00013012 </v>
   <v>       0.00037578      -0.00266006      -0.00036783 </v>
   <v>      -0.00052865       0.00036489       0.00007507 </v>
   <v>      -0.00170337       0.00048565      -0.00016966 </v>
   <v>       0.00051587       0.00069005       0.00223458 </v>
   <v>       0.00041373      -0.00049782      -0.00100952 </v>
   <v>      -0.00152870      -0.00100341       0.00028124 </v>
   <v>      -0.00046177       0.00138867       0.00026791 </v>
   <v>       0.00033101      -0.00017776      -0.00225651 </v>
   <v>      -0.00107544      -0.00002575      -0.00019130 </v>
   <v>       0.00105907       0.00036353      -0.00050738 </v>
   <v>       0.00066961      -0.00012457      -0.00131740 </v>
   <v>       0.00031598      -0.00030643       0.00093630 </v>
   <v>       0.00132409      -0.00143367      -0.00058291 </v>
   <v>       0.00282831       0.00010443       0.00133249 </v>
   <v>      -0.00156218       0.00115495       0.00226729 </v>
   <v>      -0.00083730      -0.00089153      -0.00166535 </v>
   <v>      -0.00272640      -0.00015485      -0.00070508 </v>
   <v>      -0.00050613       0.00188607      -0.00177529 </v>
   <v>       0.00100501      -0.00137738      -0.00075493 </v>
   <v>      -0.00143882       0.00023594      -0.00049221 </v>
   <v>      -0.00046364      -0.00455881      -0.00120384 </v>
   <v>      -0.00109168      -0.00003628       0.00041700 </v>
   <v>       0.00110633       0.00065412      -0.00113070 </v>
   <v>       0.00126282      -0.00044106       0.00085123 </v>
   <v>       0.00061019       0.00276593       0.00052773 </v>
   <v>      -0.00002134      -0.00112110       0.00082791 </v>
   <v>       0.00031425      -0.00002167      -0.00010954 </v>
   <v>      -0.00120383      -0.00235149       0.00199792 </v>
   <v>      -0.00019433       0.00106541      -0.00231926 </v>
   <v>       0.00201117      -0.00017602      -0.00234648 </v>
   <v>      -0.00117487      -0.00129793       0.00126872 </v>
   <v>      -0.00047118       0.00177017       0.00078546 </v>
   <v>       0.00089274      -0.00189417       0.00160679 </v>
   <v>       0.00010715      -0.00280278       0.00074247 </v>
   <v>       0.00221379       0.00063905       0.00100726 </v>
   <v>       0.00075723      -0.00121025       0.00222685 </v>
   <v>      -0.00045633      -0.00153017       0.00143906 </v>
   <v>       0.00327938       0.00091016      -0.00118739 </v>
   <v>       0.00491105      -0.00100036      -0.00060674 </v>
   <v>       0.00069160       0.00146233       0.00055853 </v>
   <v>      -0.00029132      -0.00056359       0.00288741 </v>
   <v>      -0.00057106      -0.00208912       0.00051243 </v>
   <v>       0.00122392      -0.00209047      -0.00174837 </v>
   <v>      -0.00361702      -0.00371266       0.00147132 </v>
   <v>       0.00000887       0.00069970      -0.00102972 </v>
   <v>       0.00030643       0.00096948       0.00063300 </v>
   <v>      -0.00160382      -0.00191062       0.00003707 </v>
   <v>       0.00150042       0.00188000      -0.00193461 </v>
   <v>      -0.00139379       0.00044297      -0.00247641 </v>
   <v>      -0.00182528      -0.00084409       0.00040271 </v>
   <v>      -0.00174623      -0.00037016      -0.00132949 </v>
   <v>      -0.00022676       0.00012852       0.00096475 </v>
   <v>      -0.00054530      -0.00008217      -0.00124353 </v>
   <v>       0.00147208      -0.00188664      -0.00078532 </v>
   <v>      -0.00350760       0.00233340      -0.00081830 </v>
   <v>       0.00049419      -0.00139809       0.00070065 </v>
   <v>       0.00104634       0.00160008       0.00218342 </v>
   <v>       0.00021308      -0.00004218       0.00317581 </v>
   <v>       0.00039249      -0.00009283       0.00074884 </v>
   <v>      -0.00000214      -0.00074034       0.00193666 </v>
  </varray>
  <varray name="stress" >
   <v>      -0.00154390       0.00083805       0.00771218 </v>
   <v>       0.00083805      -0.00021075       0.01181603 </v>
   <v>       0.00771217       0.01181602      -0.34558643 </v>
  </varray>
  <energy>
   <i name="e_fr_energy">   -965.01626491 </i>
   <i name="e_wo_entrp">   -965.01626491 </i>
   <i name="e_0_energy">     -0.00000000 </i>
  </energy>
  <time name="totalsc"> 1586.32 1599.91</time>
  <eigenvalues>
   <array>
    <dimension dim="1">band</dimension>
    <dimension dim="2">kpoint</dimension>
    <dimension dim="3">spin</dimension>
    <field>eigene</field>
    <field>occ</field>
    <set>
     <set comment="spin 1">
      <set comment="kpoint 1">
       <r>  -22.6227    1.0000 </r>
       <r>  -22.5906    1.0000 </r>
       <r>  -22.5345    1.0000 </r>
       <r>  -22.5210    1.0000 </r>
       <r>  -22.4727    1.0000 </r>
       <r>  -22.4544    1.0000 </r>
       <r>  -22.2291    1.0000 </r>
       <r>  -22.1997    1.0000 </r>
       <r>  -22.1383    1.0000 </r>
       <r>  -22.1227    1.0000 </r>
       <r>  -22.0750    1.0000 </r>
       <r>  -22.0584    1.0000 </r>
       <r>  -21.5490    1.0000 </r>
       <r>  -21.4904    1.0000 </r>
       <r>  -21.4618    1.0000 </r>
       <r>  -21.3712    1.0000 </r>
       <r>  -21.3469    1.0000 </r>
       <r>  -21.2934    1.0000 </r>
       <r>  -21.2384    1.0000 </r>
       <r>  -21.2012    1.0000 </r>
       <r>  -21.1431    1.0000 </r>
       <r>  -21.1410    1.0000 </r>
       <r>  -21.0757    1.0000 </r>
       <r>  -21.0637    1.0000 </r>
       <r>  -20.8186    1.0000 </r>
       <r>  -20.7057    1.0000 </r>
       <r>  -20.6399    1.0000 </r>
       <r>  -20.6107    1.0000 </r>
       <r>  -19.4122    1.0000 </r>
       <r>  -19.3735    1.0000 </r>
       <r>  -19.3205    1.0000 </r>
       <r>  -19.2654    1.0000 </r>
       <r>  -19.2396    1.0000 </r>
       <r>  -18.9679    1.0000 </r>
       <r>  -18.7504    1.0000 </r>
       <r>  -18.7286    1.0000 </r>
       <r>  -18.6363    1.0000 </r>
       <r>  -18.2002    1.0000 </r>
       <r>  -18.1940    1.0000 </r>
       <r>  -18.1139    1.0000 </r>
       <r>  -17.8854    1.0000 </r>
       <r>  -17.8661    1.0000 </r>
       <r>  -16.7862    1.0000 </r>
       <r>  -16.7692    1.0000 </r>
       <r>  -16.7516    1.0000 </r>
       <r>  -16.5272    1.0000 </r>
       <r>  -16.3616    1.0000 </r>
       <r>  -16.3493    1.0000 </r>
       <r>  -16.3296    1.0000 </r>
       <r>  -16.3214    1.0000 </r>
       <r>  -16.2909    1.0000 </r>
       <r>  -16.2704    1.0000 </r>
       <r>  -16.2217    1.0000 </r>
       <r>  -16.1924    1.0000 </r>
       <r>  -15.1415    1.0000 </r>
       <r>  -15.1194    1.0000 </r>
       <r>  -15.0972    1.0000 </r>
       <r>  -15.0592    1.0000 </r>
       <r>  -14.9632    1.0000 </r>
       <r>  -14.6822    1.0000 </r>
       <r>  -13.8591    1.0000 </r>
       <r>  -13.8327    1.0000 </r>
       <r>  -13.7775    1.0000 </r>
       <r>  -13.7667    1.0000 </r>
       <r>  -13.7363    1.0000 </r>
       <r>  -13.7275    1.0000 </r>
       <r>  -13.6775    1.0000 </r>
       <r>  -13.6711    1.0000 </r>
       <r>  -13.5935    1.0000 </r>
       <r>  -13.4002    1.0000 </r>
       <r>  -13.3889    1.0000 </r>
       <r>  -13.3603    1.0000 </r>
       <r>  -13.2383    1.0000 </r>
       <r>  -13.2152    1.0000 </r>
       <r>  -12.9481    1.0000 </r>
       <r>  -12.9006    1.0000 </r>
       <r>  -12.8435    1.0000 </r>
       <r>  -12.8060    1.0000 </r>
       <r>  -12.7533    1.0000 </r>
       <r>  -12.7339    1.0000 </r>
       <r>  -12.3871    1.0000 </r>
       <r>  -12.2221    1.0000 </r>
       <r>  -12.1825    1.0000 </r>
       <r>  -12.1384    1.0000 </r>
       <r>  -11.8232    1.0000 </r>
       <r>  -11.7638    1.0000 </r>
       <r>  -11.7239    1.0000 </r>
       <r>  -11.7075    1.0000 </r>
       <r>  -11.6534    1.0000 </r>
       <r>  -11.6061    1.0000 </r>
       <r>  -11.2953    1.0000 </r>
       <r>  -11.2908    1.0000 </r>
       <r>  -11.2443    1.0000 </r>
       <r>  -11.2214    1.0000 </r>
       <r>  -11.1956    1.0000 </r>
       <r>  -11.1786    1.0000 </r>
       <r>  -11.1308    1.0000 </r>
       <r>  -11.0943    1.0000 </r>
       <r>  -11.0847    1.0000 </r>
       <r>  -11.0748    1.0000 </r>
       <r>  -11.0259    1.0000 </r>
       <r>  -10.9888    1.0000 </r>
       <r>  -10.9810    1.0000 </r>
       <r>  -10.9485    1.0000 </r>
       <r>  -10.9407    1.0000 </r>
       <r>  -10.9256    1.0000 </r>
       <r>  -10.9203    1.0000 </r>
       <r>  -10.8915    1.0000 </r>
       <r>  -10.8677    1.0000 </r>
       <r>  -10.8504    1.0000 </r>
       <r>  -10.8399    1.0000 </r>
       <r>  -10.8120    1.0000 </r>
       <r>  -10.7805    1.0000 </r>
       <r>  -10.7657    1.0000 </r>
       <r>  -10.7427    1.0000 </r>
       <r>  -10.6624    1.0000 </r>
       <r>  -10.6133    1.0000 </r>
       <r>  -10.6057    1.0000 </r>
       <r>  -10.4421    1.0000 </r>
       <r>  -10.4113    1.0000 </r>
       <r>  -10.3656    1.0000 </r>
       <r>  -10.3518    1.0000 </r>
       <r>  -10.2979    1.0000 </r>
       <r>  -10.2701    1.0000 </r>
       <r>   -9.7462    1.0000 </r>
       <r>   -9.7301    1.0000 </r>
       <r>   -9.7120    1.0000 </r>
       <r>   -9.4331    1.0000 </r>
       <r>   -9.3925    1.0000 </r>
       <r>   -9.3621    1.0000 </r>
       <r>   -9.3562    1.0000 </r>
       <r>   -9.2927    1.0000 </r>
       <r>   -9.2907    1.0000 </r>
       <r>   -9.2687    1.0000 </r>
       <r>   -9.2540    1.0000 </r>
       <r>   -9.2209    1.0000 </r>
       <r>   -9.1946    1.0000 </r>
       <r>   -9.1557    1.0000 </r>
       <r>   -9.1378    1.0000 </r>
       <r>   -9.1011    1.0000 </r>
       <r>   -9.0783    1.0000 </r>
       <r>   -9.0002    1.0000 </r>
       <r>   -8.8192    1.0000 </r>
       <r>   -8.7757    1.0000 </r>
       <r>   -8.6926    1.0000 </r>
       <r>   -8.6654    1.0000 </r>
       <r>   -8.6003    1.0000 </r>
       <r>   -8.5419    1.0000 </r>
       <r>   -8.4924    1.0000 </r>
       <r>   -8.4696    1.0000 </r>
       <r>   -8.3618    1.0000 </r>
       <r>   -8.2948    1.0000 </r>
       <r>   -8.2819    1.0000 </r>
       <r>   -8.1721    1.0000 </r>
[...]
       <r>   -15.4446     0.0000   108.0000 </r>
       <r>   -15.3541     0.0000   108.0000 </r>
       <r>   -15.2637     0.0000   108.0000 </r>
       <r>   -15.1732     0.0001   108.0000 </r>
       <r>   -15.0828    65.8889   113.9594 </r>
       <r>   -14.9923    22.1011   116.0000 </r>
       <r>   -14.9019    22.1127   118.0000 </r>
       <r>   -14.8115     0.0000   118.0000 </r>
       <r>   -14.7210     0.4961   118.0449 </r>
       <r>   -14.6306    21.6167   120.0000 </r>
       <r>   -14.5401     0.0000   120.0000 </r>
       <r>   -14.4497     0.0000   120.0000 </r>
       <r>   -14.3592     0.0000   120.0000 </r>
       <r>   -14.2688     0.0000   120.0000 </r>
       <r>   -14.1783     0.0000   120.0000 </r>
       <r>   -14.0879     0.0000   120.0000 </r>
       <r>   -13.9974     0.0000   120.0000 </r>
       <r>   -13.9070     0.0000   120.0000 </r>
       <r>   -13.8166    26.8700   122.4303 </r>
       <r>   -13.7261    91.6136   130.8234 </r>
       <r>   -13.6357    44.2255   136.0000 </r>
       <r>   -13.5452    32.5578   138.9447 </r>
       <r>   -13.4548     5.2788   139.5456 </r>
       <r>   -13.3643    26.5301   142.0330 </r>
       <r>   -13.2739    10.1638   143.0552 </r>
       <r>   -13.1834    47.3847   148.0000 </r>
       <r>   -13.0930     0.0000   148.0000 </r>
       <r>   -13.0025     0.0000   148.0000 </r>
       <r>   -12.9121    23.3357   150.1106 </r>
       <r>   -12.8217    40.0550   154.0102 </r>
       <r>   -12.7312    58.5854   159.3095 </r>
       <r>   -12.6408     0.0000   160.0000 </r>
       <r>   -12.5503     0.0000   160.0000 </r>
       <r>   -12.4599     0.0000   160.0000 </r>
       <r>   -12.3694     8.9531   160.8098 </r>
       <r>   -12.2790    23.5049   163.2502 </r>
       <r>   -12.1885     9.3720   164.2164 </r>
       <r>   -12.0981    17.9251   166.7337 </r>
       <r>   -12.0076    12.1024   168.0000 </r>
       <r>   -11.9172     0.0000   168.0000 </r>
       <r>   -11.8268     5.0023   168.4524 </r>
       <r>   -11.7363    25.4083   172.1412 </r>
       <r>   -11.6459    53.9340   177.4457 </r>
       <r>   -11.5554    22.1128   180.0000 </r>
       <r>   -11.4650     0.0000   180.0000 </r>
       <r>   -11.3745     0.0000   180.0000 </r>
       <r>   -11.2841    40.8088   183.6910 </r>
       <r>   -11.1936    58.4411   189.2857 </r>
       <r>   -11.1032    51.7454   194.7122 </r>
       <r>   -11.0127    76.4315   202.9142 </r>
       <r>   -10.9223    83.8915   211.0937 </r>
       <r>   -10.8319    97.4083   221.0828 </r>
       <r>   -10.7414    81.5248   229.3769 </r>
       <r>   -10.6510    21.1819   231.9158 </r>
       <r>   -10.5605    44.2254   236.0000 </r>
       <r>   -10.4701     0.0008   236.0001 </r>
       <r>   -10.3796    44.7403   240.0466 </r>
       <r>   -10.2892    63.4864   245.7887 </r>
       <r>   -10.1987    22.0366   248.0000 </r>
       <r>   -10.1083     0.0000   248.0000 </r>
       <r>   -10.0178     0.0000   248.0000 </r>
       <r>    -9.9274     0.1124   248.0102 </r>
       <r>    -9.8370    16.3409   249.4881 </r>
       <r>    -9.7465     4.8686   250.0071 </r>
       <r>    -9.6561    25.0209   252.3166 </r>
       <r>    -9.5656     3.5219   252.6855 </r>
       <r>    -9.4752     7.9167   253.4503 </r>
       <r>    -9.3847    46.8647   257.8740 </r>
       <r>    -9.2943    73.1754   264.6208 </r>
       <r>    -9.2038    62.1340   272.3222 </r>
       <r>    -9.1134    45.3588   278.1025 </r>
       <r>    -9.0229    43.0854   282.0013 </r>
       <r>    -8.9325    22.0982   284.0000 </r>
       <r>    -8.8421     0.0101   284.0009 </r>
       <r>    -8.7516    39.0361   287.5316 </r>
       <r>    -8.6612    43.5051   291.9350 </r>
       <r>    -8.5707    21.2417   293.9212 </r>
       <r>    -8.4803    40.9474   297.7035 </r>
       <r>    -8.3898    21.6107   300.0000 </r>
       <r>    -8.2994    31.3025   302.8312 </r>
       <r>    -8.2089    23.1620   306.0005 </r>
       <r>    -8.1185    59.6572   311.3962 </r>
       <r>    -8.0280    27.2373   314.0010 </r>
       <r>    -7.9376    22.1007   316.0000 </r>
       <r>    -7.8472     0.0000   316.0000 </r>
       <r>    -7.7567     0.0000   316.0000 </r>
       <r>    -7.6663    25.0178   318.2627 </r>
       <r>    -7.5758    22.5796   320.9208 </r>
       <r>    -7.4854    11.0259   322.0000 </r>
       <r>    -7.3949    29.4219   324.6611 </r>
       <r>    -7.3045    67.3433   331.0709 </r>
       <r>    -7.2140    42.0593   335.1202 </r>
       <r>    -7.1236    58.5452   340.7704 </r>
       <r>    -7.0331    30.3679   343.8865 </r>
       <r>    -6.9427     0.0000   344.0000 </r>
       <r>    -6.8523     0.0000   344.0000 </r>
       <r>    -6.7618    27.7041   346.5057 </r>
       <r>    -6.6714    25.2992   349.9998 </r>
       <r>    -6.5809     8.6758   350.7847 </r>
       <r>    -6.4905    21.7940   354.0000 </r>
       <r>    -6.4000    22.1128   356.0000 </r>
       <r>    -6.3096    22.1281   358.0014 </r>
       <r>    -6.2191    62.0408   363.6127 </r>
       <r>    -6.1287    12.6425   366.8636 </r>
       <r>    -6.0382     0.0000   368.0000 </r>
       <r>    -5.9478     0.0000   368.0000 </r>
       <r>    -5.8574     0.0000   368.0000 </r>
       <r>    -5.7669    22.3580   370.0222 </r>
       <r>    -5.6765    43.2395   374.6863 </r>
       <r>    -5.5860    22.1126   378.0000 </r>
       <r>    -5.4956    22.1128   380.0000 </r>
       <r>    -5.4051    23.8304   382.1554 </r>
       <r>    -5.3147     0.0000   384.0000 </r>
       <r>    -5.2242     0.0000   384.0000 </r>
       <r>    -5.1338    22.0951   385.9984 </r>
       <r>    -5.0433    34.2331   389.0964 </r>
       <r>    -4.9529    22.1415   392.0026 </r>
       <r>    -4.8625    22.0840   394.0000 </r>
       <r>    -4.7720    22.1124   396.0000 </r>
       <r>    -4.6816     0.0000   396.0000 </r>
       <r>    -4.5911     0.0000   396.0000 </r>
       <r>    -4.5007     0.0000   396.0000 </r>
       <r>    -4.4102     0.0000   396.0000 </r>
       <r>    -4.3198     0.0000   396.0000 </r>
       <r>    -4.2293    15.2567   397.3799 </r>
       <r>    -4.1389    22.1127   400.0000 </r>
       <r>    -4.0484    33.3974   403.0206 </r>
       <r>    -3.9580    22.1127   406.0000 </r>
       <r>    -3.8676     0.5175   406.0468 </r>
       <r>    -3.7771    21.5953   408.0000 </r>
       <r>    -3.6867     0.0000   408.0000 </r>
       <r>    -3.5962     0.0000   408.0000 </r>
       <r>    -3.5058     0.0000   408.0000 </r>
       <r>    -3.4153     0.0000   408.0000 </r>
       <r>    -3.3249     0.0000   408.0000 </r>
       <r>    -3.2344     0.0007   408.0001 </r>
       <r>    -3.1440    44.2436   412.0017 </r>
       <r>    -3.0535    62.9060   417.6930 </r>
       <r>    -2.9631    22.0913   420.0000 </r>
       <r>    -2.8726     0.0000   420.0000 </r>
       <r>    -2.7822     0.0000   420.0000 </r>
       <r>    -2.6918     0.0000   420.0000 </r>
       <r>    -2.6013     0.0000   420.0000 </r>
       <r>    -2.5109     0.0000   420.0000 </r>
       <r>    -2.4204     0.0000   420.0000 </r>
       <r>    -2.3300     0.0000   420.0000 </r>
       <r>    -2.2395     0.0000   420.0000 </r>
       <r>    -2.1491     0.0000   420.0000 </r>
       <r>    -2.0586     0.0000   420.0000 </r>
       <r>    -1.9682     0.0000   420.0000 </r>
       <r>    -1.8777     0.0000   420.0000 </r>
       <r>    -1.7873     0.0000   420.0000 </r>
       <r>    -1.6969     0.0000   420.0000 </r>
       <r>    -1.6064     0.0000   420.0000 </r>
       <r>    -1.5160     0.0000   420.0000 </r>
       <r>    -1.4255     0.0000   420.0000 </r>
       <r>    -1.3351     0.0000   420.0000 </r>
       <r>    -1.2446     0.0000   420.0000 </r>
       <r>    -1.1542     0.0000   420.0000 </r>
       <r>    -1.0637     0.0000   420.0000 </r>
       <r>    -0.9733     0.0000   420.0000 </r>
       <r>    -0.8828    21.4809   421.9429 </r>
       <r>    -0.7924    57.4312   427.2702 </r>
       <r>    -0.7020    57.8277   433.2309 </r>
       <r>    -0.6115    22.1122   436.0000 </r>
       <r>    -0.5211    18.1213   437.6390 </r>
       <r>    -0.4306    10.7257   438.9701 </r>
       <r>    -0.3402     9.0240   439.9838 </r>
       <r>    -0.2497    20.5365   441.8574 </r>
       <r>    -0.1593    31.8923   444.8846 </r>
       <r>    -0.0688    27.9174   448.0723 </r>
       <r>     0.0216    38.6556   451.8400 </r>
       <r>     0.1121    25.9367   454.3469 </r>
       <r>     0.2025    54.6259   460.5252 </r>
       <r>     0.2929    14.7289   462.0000 </r>
       <r>     0.3834    40.7427   465.6850 </r>
       <r>     0.4738    22.2060   468.0085 </r>
       <r>     0.5643    48.1232   472.3611 </r>
       <r>     0.6547    14.9814   474.6355 </r>
       <r>     0.7452    55.8395   479.8203 </r>
       <r>     0.8356    75.0936   487.3214 </r>
       <r>     0.9261    84.0937   495.8860 </r>
       <r>     1.0165    73.7729   503.2335 </r>
       <r>     1.1070    55.4810   509.0385 </r>
       <r>     1.1974    39.0014   513.3770 </r>
       <r>     1.2878    59.7243   519.4178 </r>
       <r>     1.3783    69.7772   526.2077 </r>
       <r>     1.4687    58.7371   531.7636 </r>
       <r>     1.5592    67.6825   538.4696 </r>
       <r>     1.6496    73.4404   546.1387 </r>
       <r>     1.7401    57.4141   552.2406 </r>
       <r>     1.8305    77.1578   560.2923 </r>
       <r>     1.9210    82.8295   568.7490 </r>
       <r>     2.0114    62.7088   575.2173 </r>
       <r>     2.1019     5.4633   576.0000 </r>
       <r>     2.1923     0.0000   576.0000 </r>
       <r>     2.2827     0.0000   576.0000 </r>
       <r>     2.3732     0.0000   576.0000 </r>
       <r>     2.4636     0.0000   576.0000 </r>
       <r>     2.5541     0.0000   576.0000 </r>
       <r>     2.6445     0.0000   576.0000 </r>
       <r>     2.7350     0.0000   576.0000 </r>
       <r>     2.8254     0.0000   576.0000 </r>
       <r>     2.9159     0.0000   576.0000 </r>
       <r>     3.0063     0.0000   576.0000 </r>
       <r>     3.0968     0.0000   576.0000 </r>
       <r>     3.1872     0.0000   576.0000 </r>
       <r>     3.2776     0.0000   576.0000 </r>
      </set>
     </set>
    </array>
   </total>
  </dos>
 </calculation>
 <structure name="finalpos" >
  <crystal>
   <varray name="basis" >
    <v>      22.90402873       0.04185314       0.00000000 </v>
    <v>     -11.40609919      19.82961256       0.00000000 </v>
    <v>       0.00000000       0.00000000      20.00000000 </v>
   </varray>
   <i name="volume">   9093.10793377 </i>
   <varray name="rec_basis" >
    <v>       0.04361460       0.02508735       0.00000000 </v>
    <v>      -0.00009205       0.05037668       0.00000000 </v>
    <v>       0.00000000       0.00000000       0.05000000 </v>
   </varray>
  </crystal>
  <varray name="positions" >
   <v>       0.91772045       0.07778765       0.36711914 </v>
   <v>       0.91834067       0.07931354       0.61376098 </v>
   <v>       0.84362227       0.14220312       0.36669934 </v>
   <v>       0.84379663       0.14319053       0.61334907 </v>
   <v>       0.83212579       0.36493462       0.36554144 </v>
   <v>       0.62733683       0.15886353       0.36821430 </v>
   <v>       0.83762012       0.36609223       0.61200849 </v>
   <v>       0.62359136       0.15216311       0.61249100 </v>
   <v>       0.84718576       0.71816495       0.36881496 </v>
   <v>       0.92025439       0.85594788       0.36886532 </v>
   <v>       0.27680989       0.15197125       0.36915614 </v>
   <v>       0.13925238       0.07847721       0.36897954 </v>
   <v>       0.83867711       0.48716651       0.36626635 </v>
   <v>       0.62799933       0.48873306       0.36701282 </v>
   <v>       0.50556821       0.37315898       0.36639788 </v>
   <v>       0.50422889       0.15495484       0.36621480 </v>
   <v>       0.84630822       0.71753440       0.61525611 </v>
   <v>       0.91946354       0.85533350       0.61591485 </v>
   <v>       0.27733278       0.15025876       0.61570806 </v>
   <v>       0.13934091       0.07624271       0.61587746 </v>
   <v>       0.84453833       0.48874346       0.61305329 </v>
   <v>       0.62767754       0.48821964       0.61381254 </v>
   <v>       0.50678375       0.36627850       0.61121093 </v>
   <v>       0.50700021       0.15743782       0.61347943 </v>
   <v>       0.95541988       0.03917354       0.49096650 </v>
   <v>       0.92126358       0.96844259       0.49135732 </v>
   <v>       0.02606885       0.07415284       0.49146753 </v>
   <v>       0.89897459       0.09294215       0.42931290 </v>
   <v>       0.91741512       0.07639020       0.49046627 </v>
   <v>       0.89923708       0.09365088       0.55137946 </v>
   <v>       0.73601310       0.14734088       0.49001905 </v>
   <v>       0.80692523       0.18269533       0.48979834 </v>
   <v>       0.84215379       0.25367367       0.48928996 </v>
   <v>       0.86282192       0.12788634       0.42910504 </v>
   <v>       0.86295033       0.12844475       0.55114727 </v>
   <v>       0.84470243       0.14520624       0.49001347 </v>
   <v>       0.80719503       0.28955130       0.48900711 </v>
   <v>       0.73675511       0.25276240       0.48919969 </v>
   <v>       0.70011931       0.18216957       0.48961341 </v>
   <v>       0.83968299       0.39686226       0.42798270 </v>
   <v>       0.83618625       0.36430635       0.48880167 </v>
   <v>       0.62552818       0.15355358       0.48958130 </v>
   <v>       0.59370431       0.15150561       0.42853380 </v>
   <v>       0.84245765       0.39757180       0.54985488 </v>
   <v>       0.59299578       0.14925447       0.55058904 </v>
   <v>       0.95643209       0.93267179       0.49237264 </v>
   <v>       0.02704485       0.96899149       0.49296541 </v>
   <v>       0.06253673       0.03974335       0.49243710 </v>
   <v>       0.70340495       0.53520631       0.49054708 </v>
   <v>       0.74024043       0.50125866       0.49007879 </v>
   <v>       0.81076405       0.53482365       0.49046248 </v>
   <v>       0.84544630       0.60548002       0.49131029 </v>
   <v>       0.81000394       0.64121738       0.49167709 </v>
   <v>       0.73911755       0.60580205       0.49131639 </v>
   <v>       0.45957475       0.18682260       0.48992235 </v>
   <v>       0.49330202       0.25738993       0.48864611 </v>
   <v>       0.45952532       0.29439324       0.48939505 </v>
   <v>       0.38907245       0.25885358       0.49067737 </v>
   <v>       0.35351669       0.18788404       0.49175313 </v>
   <v>       0.38902376       0.15226215       0.49157071 </v>
   <v>       0.86557704       0.75162367       0.43112231 </v>
   <v>       0.90130893       0.82255721       0.43126650 </v>
   <v>       0.24335288       0.13267377       0.43143302 </v>
   <v>       0.17252986       0.09661455       0.43142251 </v>
   <v>       0.83957047       0.48873312       0.48968141 </v>
   <v>       0.84103941       0.45914916       0.42843067 </v>
   <v>       0.50527607       0.36904647       0.48956085 </v>
   <v>       0.53424306       0.40157446       0.42884781 </v>
   <v>       0.59632965       0.46234921       0.42915303 </v>
   <v>       0.62878306       0.48965828       0.49028438 </v>
   <v>       0.53184243       0.15102029       0.42884109 </v>
   <v>       0.50491795       0.15721549       0.49002930 </v>
   <v>       0.91915961       0.85757950       0.49238807 </v>
   <v>       0.90096258       0.82225828       0.55333595 </v>
   <v>       0.86518749       0.75131719       0.55311700 </v>
   <v>       0.84732952       0.71630682       0.49203589 </v>
   <v>       0.13752860       0.07774181       0.49251157 </v>
   <v>       0.17270702       0.09553845       0.55354206 </v>
   <v>       0.24357535       0.13171209       0.55345871 </v>
   <v>       0.27853921       0.15037822       0.49238358 </v>
   <v>       0.84388049       0.45990421       0.55036397 </v>
   <v>       0.59585782       0.46156350       0.55122473 </v>
   <v>       0.53397073       0.40057133       0.55100120 </v>
   <v>       0.53361562       0.15352654       0.55088402 </v>
   <v>       0.05312744       0.12915151       0.49114620 </v>
   <v>       0.86631845       0.94069531       0.49090414 </v>
   <v>       0.93481298       0.04453723       0.37152519 </v>
   <v>       0.87967346       0.06072637       0.33291737 </v>
   <v>       0.93570221       0.04625129       0.60981954 </v>
   <v>       0.88041899       0.06245644       0.64808451 </v>
   <v>       0.70940567       0.09232783       0.49033694 </v>
   <v>       0.89711133       0.28048662       0.48912241 </v>
   <v>       0.82464345       0.17391389       0.37110109 </v>
   <v>       0.88201495       0.16087525       0.33281673 </v>
   <v>       0.88219612       0.16214483       0.64722674 </v>
   <v>       0.82466130       0.17473996       0.60865174 </v>
   <v>       0.70913856       0.28023539       0.48889942 </v>
   <v>       0.86428437       0.39678914       0.33021619 </v>
   <v>       0.83566113       0.32243562       0.36862538 </v>
   <v>       0.65596600       0.13675628       0.36380771 </v>
   <v>       0.60341022       0.15982630       0.32607600 </v>
   <v>       0.84218393       0.32423030       0.60797632 </v>
   <v>       0.87073627       0.39849678       0.64641825 </v>
   <v>       0.66179521       0.14176357       0.60944720 </v>
   <v>       0.58984127       0.12370590       0.64842529 </v>
   <v>       0.05492921       0.94177530       0.49366961 </v>
   <v>       0.90038196       0.63347790       0.49152742 </v>
   <v>       0.71231222       0.63412657       0.49164056 </v>
   <v>       0.71285144       0.44628174       0.48939331 </v>
   <v>       0.36092570       0.28583712       0.49075551 </v>
   <v>       0.36092952       0.09727136       0.49274634 </v>
   <v>       0.54820680       0.28473102       0.48765692 </v>
   <v>       0.83140606       0.66813361       0.37277323 </v>
   <v>       0.88498218       0.74010299       0.33445895 </v>
   <v>       0.94091723       0.90674641       0.37305281 </v>
   <v>       0.88154212       0.83727038       0.33536866 </v>
   <v>       0.32722333       0.17022476       0.37328737 </v>
   <v>       0.25651760       0.11398485       0.33482430 </v>
   <v>       0.08886987       0.06049781       0.37300597 </v>
   <v>       0.15967226       0.11728270       0.33552555 </v>
   <v>       0.82832878       0.52537544       0.37120259 </v>
   <v>       0.80495421       0.45158241       0.33425071 </v>
   <v>       0.59492518       0.48731144       0.33201172 </v>
   <v>       0.66782215       0.53629996       0.37081546 </v>
   <v>       0.46575238       0.32559664       0.37040328 </v>
   <v>       0.53999986       0.37400591       0.33339976 </v>
   <v>       0.49119702       0.11344756       0.33726966 </v>
   <v>       0.46247025       0.15936368       0.37276087 </v>
   <v>       0.88398837       0.73898695       0.64979066 </v>
   <v>       0.83016544       0.66744630       0.61098749 </v>
   <v>       0.93998202       0.90613479       0.61195728 </v>
   <v>       0.88057185       0.83633972       0.64921369 </v>
   <v>       0.25714341       0.11173487       0.64948520 </v>
   <v>       0.32764369       0.16799543       0.61108095 </v>
   <v>       0.08896978       0.05830603       0.61194654 </v>
   <v>       0.15972953       0.11431369       0.65011719 </v>
   <v>       0.83511508       0.52764747       0.60907067 </v>
   <v>       0.81166172       0.45385550       0.64612574 </v>
   <v>       0.67290737       0.53100355       0.60765166 </v>
   <v>       0.59878285       0.49940047       0.64429593 </v>
   <v>       0.45596284       0.34119779       0.61524421 </v>
   <v>       0.53106364       0.39080204       0.65337368 </v>
   <v>       0.47048653       0.17020947       0.60867937 </v>
   <v>       0.54358157       0.19082513       0.64491947 </v>
  </varray>
 </structure>
</modeling>
