<?xml version="1.0" encoding="ISO-8859-1"?>
<modeling>
 <generator>
  <i name="program" type="string">vasp </i>
  <i name="version" type="string">5.4.4.18Apr17-6-g9f103f2a35  </i>
  <i name="subversion" type="string">(build Jun 07 2020 16:50:00) complex            parallel </i>
  <i name="platform" type="string">LinuxIFC </i>
  <i name="date" type="string">2023 03 03 </i>
  <i name="time" type="string">00:21:15 </i>
 </generator>
 <incar>
  <i type="string" name="SYSTEM">Simulation for cell shape cell volume r</i>
  <i type="int" name="ISTART">     1</i>
  <i type="string" name="PREC">high</i>
  <i type="string" name="ALGO">48</i>
  <i type="int" name="ICHARG">    11</i>
  <i type="int" name="NELM">   200</i>
  <i type="int" name="IBRION">    -1</i>
  <i name="EDIFF">      0.00001000</i>
  <i name="EDIFFG">     -0.01000000</i>
  <i type="int" name="NSW">     0</i>
  <i type="int" name="ISIF">     2</i>
  <i name="ENCUT">    500.00000000</i>
  <i name="POTIM">      0.30000000</i>
  <i type="string" name="LREAL">A</i>
  <i type="int" name="ISMEAR">     0</i>
  <i name="SIGMA">      0.01000000</i>
  <i type="int" name="NWRITE">     0</i>
  <i type="logical" name="LWAVE"> F  </i>
  <i type="logical" name="LCHARG"> F  </i>
  <v type="int" name="KPOINT_BSE">    -1     0     0     0</v>
  <i type="int" name="NELM">   200</i>
  <i type="string" name="GGA">PE</i>
 </incar>
 <structure name="primitive_cell" >
  <crystal>
   <varray name="basis" >
    <v>      23.07871523       0.00744505       0.00000000 </v>
    <v>     -11.53285585      19.99385994       0.00000000 </v>
    <v>      -0.00000000       0.00000000      20.00000000 </v>
   </varray>
   <i name="volume">   9230.36925010 </i>
   <varray name="rec_basis" >
    <v>       0.04332191       0.02498894       0.00000000 </v>
    <v>      -0.00001613       0.05000605      -0.00000000 </v>
    <v>       0.00000000       0.00000000       0.05000000 </v>
   </varray>
  </crystal>
  <varray name="positions" >
   <v>      -0.46800576       0.47374432       0.47021890 </v>
   <v>       0.49767572       0.40324851       0.47403209 </v>
   <v>      -0.39751935      -0.49169850       0.47496310 </v>
   <v>       0.49447755      -0.48908787       0.46859377 </v>
   <v>       0.44343705       0.37485386       0.46961808 </v>
   <v>      -0.36858127      -0.43754407       0.47002149 </v>
   <v>      -0.36326490       0.47437416       0.48961081 </v>
   <v>      -0.46853981       0.36824021       0.48711341 </v>
   <v>      -0.47120928      -0.41854707       0.47128989 </v>
   <v>       0.42388872       0.47646196       0.47167122 </v>
   <v>      -0.41686432      -0.39025848       0.46831858 </v>
   <v>       0.39509628       0.42218762       0.46805950 </v>
   <v>      -0.39921247       0.40490647       0.49702160 </v>
   <v>       0.38935348      -0.48933026       0.48339817 </v>
   <v>       0.49480566      -0.38329859       0.48167426 </v>
   <v>      -0.28969567      -0.49626097       0.49809468 </v>
   <v>      -0.49727714       0.29491812       0.49348275 </v>
   <v>       0.46278971       0.30942487       0.36777109 </v>
   <v>      -0.37225487       0.37863845      -0.49110204 </v>
   <v>       0.42522378      -0.41971585       0.48964012 </v>
   <v>      -0.24866504      -0.46396038       0.44689389 </v>
   <v>       0.43551733       0.25721904       0.38483256 </v>
   <v>      -0.27146031       0.48561656      -0.44520900 </v>
   <v>      -0.46459353       0.30220328      -0.40359621 </v>
   <v>       0.47011734       0.24637768       0.44289880 </v>
   <v>      -0.48049257       0.27155557      -0.44893159 </v>
   <v>       0.38509464       0.24642867       0.39955603 </v>
   <v>      -0.43708348      -0.32452534       0.36201577 </v>
   <v>       0.31571221       0.48157712       0.49158577 </v>
   <v>      -0.47612541      -0.30989984       0.48819776 </v>
   <v>       0.39814993      -0.39318040       0.49969639 </v>
   <v>      -0.35888327      -0.26322876       0.39443742 </v>
   <v>      -0.40880441      -0.27254580       0.37966005 </v>
   <v>       0.43040410       0.22373405       0.34360538 </v>
   <v>       0.27445275       0.44982249       0.44036936 </v>
   <v>      -0.18954433      -0.46262364       0.44460561 </v>
   <v>       0.49069338      -0.31749249      -0.40905073 </v>
   <v>      -0.44296693      -0.26124475       0.43785520 </v>
   <v>       0.29787077       0.49974778      -0.45152037 </v>
   <v>      -0.21349062       0.48607449      -0.44814168 </v>
   <v>       0.47168333       0.18868843       0.44424068 </v>
   <v>      -0.49273206      -0.28651000      -0.45414603 </v>
   <v>      -0.47972365       0.21419724      -0.44698287 </v>
   <v>      -0.17268259      -0.42082919       0.34622802 </v>
   <v>      -0.17354718      -0.49625331       0.49407235 </v>
   <v>      -0.49676700       0.17904596       0.49559592 </v>
   <v>      -0.40261733      -0.23830112       0.33880790 </v>
   <v>      -0.19873579       0.46916824      -0.40350497 </v>
   <v>      -0.14429977      -0.42711102       0.38670004 </v>
   <v>       0.21568830       0.44926600       0.43843156 </v>
   <v>       0.24019850       0.49987090      -0.45397686 </v>
   <v>      -0.44364109      -0.20309719       0.43951031 </v>
   <v>      -0.37139321       0.22163414      -0.49387847 </v>
   <v>      -0.21474140       0.37824146      -0.49386511 </v>
   <v>      -0.49255059      -0.22865667      -0.45186273 </v>
   <v>      -0.10431132      -0.37717081       0.40216474 </v>
   <v>       0.19840432       0.40835768       0.33965296 </v>
   <v>      -0.11982602      -0.45442171       0.36831045 </v>
   <v>       0.20021364       0.48285450       0.48834333 </v>
   <v>      -0.47492261      -0.19317251       0.49091648 </v>
   <v>      -0.12898034       0.47506272       0.48611473 </v>
   <v>      -0.46718701       0.13503536       0.48675405 </v>
   <v>       0.17027881       0.41468184       0.38035875 </v>
   <v>       0.22580313      -0.48325328      -0.40907551 </v>
   <v>      -0.16155361       0.40551605       0.49423048 </v>
   <v>      -0.39770324       0.16846348       0.49415177 </v>
   <v>       0.12986174       0.36480283       0.39539331 </v>
   <v>       0.39976463      -0.23568525       0.49897937 </v>
   <v>       0.24266017      -0.39129834       0.49910466 </v>
   <v>       0.14640233       0.44272931       0.36245012 </v>
   <v>      -0.06012372      -0.49080414       0.47344492 </v>
   <v>       0.49881715       0.06689463       0.47221507 </v>
   <v>       0.44464459       0.04177846       0.46738298 </v>
   <v>       0.15601539      -0.48797982       0.48119919 </v>
   <v>      -0.03424661      -0.43644265       0.47097500 </v>
   <v>       0.49599753      -0.14863923       0.48242669 </v>
   <v>      -0.29442505       0.20426747      -0.40583588 </v>
   <v>      -0.12789337       0.36981834       0.48529819 </v>
   <v>      -0.36111247       0.13567266       0.48424422 </v>
   <v>      -0.26405994       0.21946998      -0.45136432 </v>
   <v>      -0.20663865       0.27747612      -0.44918285 </v>
   <v>       0.42639095      -0.18216629       0.48865015 </v>
   <v>       0.18914685      -0.41837018       0.48871598 </v>
   <v>      -0.28773008       0.18003607       0.49062998 </v>
   <v>      -0.17171478       0.29614032       0.49326393 </v>
   <v>      -0.18154735       0.25545150       0.44142356 </v>
   <v>      -0.23935877       0.19638428       0.43975536 </v>
   <v>      -0.02390580       0.47499241       0.46784771 </v>
   <v>      -0.46672336       0.03083240       0.46763115 </v>
   <v>      -0.05979088       0.40440429       0.47056738 </v>
   <v>      -0.46971752      -0.08006488       0.47007632 </v>
   <v>      -0.39620344       0.06689528       0.47130362 </v>
   <v>       0.08686732       0.47809528       0.47059055 </v>
   <v>      -0.41546110      -0.05478887       0.46627374 </v>
   <v>       0.06076434       0.42371690       0.46853770 </v>
   <v>       0.32396234      -0.21825161      -0.41041186 </v>
   <v>      -0.30292354       0.12630357       0.36472750 </v>
   <v>       0.39004113      -0.14895239       0.48009747 </v>
   <v>       0.15551135      -0.38244628       0.48152513 </v>
   <v>       0.29315159      -0.23292714      -0.45564167 </v>
   <v>       0.23538999      -0.29061338      -0.45330144 </v>
   <v>       0.39716945      -0.05368222       0.46590066 </v>
   <v>       0.06160555      -0.38799083       0.46408934 </v>
   <v>      -0.25048039       0.15154085       0.38109086 </v>
   <v>       0.31662455      -0.19319236       0.48653835 </v>
   <v>       0.20004804      -0.30880189       0.48939438 </v>
   <v>      -0.21765597       0.18039400       0.33965784 </v>
   <v>      -0.03457283       0.37558795       0.46405147 </v>
   <v>      -0.36782154       0.04099927       0.46694941 </v>
   <v>       0.05075007      -0.48748907       0.46669339 </v>
   <v>       0.49594166      -0.04381304       0.46649181 </v>
   <v>       0.21007196      -0.26790810       0.43771425 </v>
   <v>       0.26805420      -0.20901028       0.43601804 </v>
   <v>       0.42537584      -0.07983854       0.46921489 </v>
   <v>       0.08692776      -0.41687762       0.46905186 </v>
   <v>      -0.23890333       0.11220694       0.39485362 </v>
   <v>       0.26893909      -0.12369257       0.39222859 </v>
   <v>       0.33123992      -0.13950713       0.36040379 </v>
   <v>       0.27912227      -0.16378902       0.37770085 </v>
   <v>       0.24526489      -0.19212789       0.33671764 </v>
  </varray>
 </structure>
 <varray name="primitive_index" >
  <v type="int" >        1 </v>
  <v type="int" >        4 </v>
  <v type="int" >       11 </v>
  <v type="int" >       51 </v>
  <v type="int" >       68 </v>
  <v type="int" >       73 </v>
  <v type="int" >       12 </v>
  <v type="int" >        3 </v>
  <v type="int" >       52 </v>
  <v type="int" >       64 </v>
  <v type="int" >       98 </v>
  <v type="int" >      106 </v>
  <v type="int" >        2 </v>
  <v type="int" >       63 </v>
  <v type="int" >       53 </v>
  <v type="int" >        9 </v>
  <v type="int" >        6 </v>
  <v type="int" >       69 </v>
  <v type="int" >       67 </v>
  <v type="int" >       54 </v>
  <v type="int" >      110 </v>
  <v type="int" >        7 </v>
  <v type="int" >      112 </v>
  <v type="int" >       74 </v>
  <v type="int" >        5 </v>
  <v type="int" >       13 </v>
  <v type="int" >       71 </v>
  <v type="int" >      100 </v>
  <v type="int" >       61 </v>
  <v type="int" >       56 </v>
  <v type="int" >       99 </v>
  <v type="int" >      102 </v>
  <v type="int" >       58 </v>
  <v type="int" >       70 </v>
  <v type="int" >      118 </v>
  <v type="int" >        8 </v>
  <v type="int" >      107 </v>
  <v type="int" >       55 </v>
  <v type="int" >      120 </v>
  <v type="int" >       14 </v>
  <v type="int" >      109 </v>
  <v type="int" >       65 </v>
  <v type="int" >      111 </v>
  <v type="int" >       80 </v>
  <v type="int" >       24 </v>
  <v type="int" >       23 </v>
  <v type="int" >      101 </v>
  <v type="int" >       86 </v>
  <v type="int" >       10 </v>
  <v type="int" >       59 </v>
  <v type="int" >       66 </v>
  <v type="int" >      117 </v>
  <v type="int" >       76 </v>
  <v type="int" >       77 </v>
  <v type="int" >      119 </v>
  <v type="int" >       72 </v>
  <v type="int" >      104 </v>
  <v type="int" >       79 </v>
  <v type="int" >       60 </v>
  <v type="int" >       57 </v>
  <v type="int" >       21 </v>
  <v type="int" >       28 </v>
  <v type="int" >       62 </v>
  <v type="int" >      108 </v>
  <v type="int" >       20 </v>
  <v type="int" >       17 </v>
  <v type="int" >      105 </v>
  <v type="int" >       87 </v>
  <v type="int" >       90 </v>
  <v type="int" >      103 </v>
  <v type="int" >       22 </v>
  <v type="int" >       27 </v>
  <v type="int" >       83 </v>
  <v type="int" >       37 </v>
  <v type="int" >       78 </v>
  <v type="int" >       45 </v>
  <v type="int" >       85 </v>
  <v type="int" >       30 </v>
  <v type="int" >       18 </v>
  <v type="int" >       49 </v>
  <v type="int" >      115 </v>
  <v type="int" >       33 </v>
  <v type="int" >       38 </v>
  <v type="int" >       40 </v>
  <v type="int" >       41 </v>
  <v type="int" >      114 </v>
  <v type="int" >       39 </v>
  <v type="int" >       19 </v>
  <v type="int" >       16 </v>
  <v type="int" >       48 </v>
  <v type="int" >       46 </v>
  <v type="int" >       34 </v>
  <v type="int" >       36 </v>
  <v type="int" >       95 </v>
  <v type="int" >       89 </v>
  <v type="int" >       97 </v>
  <v type="int" >       91 </v>
  <v type="int" >       32 </v>
  <v type="int" >       47 </v>
  <v type="int" >       50 </v>
  <v type="int" >      116 </v>
  <v type="int" >       75 </v>
  <v type="int" >       84 </v>
  <v type="int" >       42 </v>
  <v type="int" >       43 </v>
  <v type="int" >       44 </v>
  <v type="int" >       92 </v>
  <v type="int" >       96 </v>
  <v type="int" >       88 </v>
  <v type="int" >       35 </v>
  <v type="int" >       31 </v>
  <v type="int" >      113 </v>
  <v type="int" >       25 </v>
  <v type="int" >       15 </v>
  <v type="int" >       29 </v>
  <v type="int" >       93 </v>
  <v type="int" >       82 </v>
  <v type="int" >       81 </v>
  <v type="int" >       26 </v>
  <v type="int" >       94 </v>
 </varray>
 <kpoints>
  <generation param="listgenerated">
   <i name="divisions" type="int">      20 </i>
   <v>       0.00000000       0.00000000       0.00000000 </v>
   <v>       0.50000000       0.00000000       0.00000000 </v>
   <v>       0.33333333       0.33333333       0.00000000 </v>
   <v>       0.00000000       0.00000000       0.00000000 </v>
  </generation>
  <varray name="kpointlist" >
   <v>       0.00000000       0.00000000       0.00000000 </v>
   <v>       0.02631579       0.00000000       0.00000000 </v>
   <v>       0.05263158       0.00000000       0.00000000 </v>
   <v>       0.07894737       0.00000000       0.00000000 </v>
   <v>       0.10526316       0.00000000       0.00000000 </v>
   <v>       0.13157895       0.00000000       0.00000000 </v>
   <v>       0.15789474       0.00000000       0.00000000 </v>
   <v>       0.18421053       0.00000000       0.00000000 </v>
   <v>       0.21052632       0.00000000       0.00000000 </v>
   <v>       0.23684211       0.00000000       0.00000000 </v>
   <v>       0.26315789       0.00000000       0.00000000 </v>
   <v>       0.28947368       0.00000000       0.00000000 </v>
   <v>       0.31578947       0.00000000       0.00000000 </v>
   <v>       0.34210526       0.00000000       0.00000000 </v>
   <v>       0.36842105       0.00000000       0.00000000 </v>
   <v>       0.39473684       0.00000000       0.00000000 </v>
   <v>       0.42105263       0.00000000       0.00000000 </v>
   <v>       0.44736842       0.00000000       0.00000000 </v>
   <v>       0.47368421       0.00000000       0.00000000 </v>
   <v>       0.50000000       0.00000000       0.00000000 </v>
   <v>       0.50000000       0.00000000       0.00000000 </v>
   <v>       0.49122807       0.01754386       0.00000000 </v>
   <v>       0.48245614       0.03508772       0.00000000 </v>
   <v>       0.47368421       0.05263158       0.00000000 </v>
   <v>       0.46491228       0.07017544       0.00000000 </v>
   <v>       0.45614035       0.08771930       0.00000000 </v>
   <v>       0.44736842       0.10526316       0.00000000 </v>
   <v>       0.43859649       0.12280702       0.00000000 </v>
   <v>       0.42982456       0.14035088       0.00000000 </v>
   <v>       0.42105263       0.15789474       0.00000000 </v>
   <v>       0.41228070       0.17543860       0.00000000 </v>
   <v>       0.40350877       0.19298246       0.00000000 </v>
   <v>       0.39473684       0.21052632       0.00000000 </v>
   <v>       0.38596491       0.22807018       0.00000000 </v>
   <v>       0.37719298       0.24561404       0.00000000 </v>
   <v>       0.36842105       0.26315789       0.00000000 </v>
   <v>       0.35964912       0.28070175       0.00000000 </v>
   <v>       0.35087719       0.29824561       0.00000000 </v>
   <v>       0.34210526       0.31578947       0.00000000 </v>
   <v>       0.33333333       0.33333333       0.00000000 </v>
   <v>       0.33333333       0.33333333       0.00000000 </v>
   <v>       0.31578947       0.31578947       0.00000000 </v>
   <v>       0.29824561       0.29824561       0.00000000 </v>
   <v>       0.28070175       0.28070175       0.00000000 </v>
   <v>       0.26315789       0.26315789       0.00000000 </v>
   <v>       0.24561404       0.24561404       0.00000000 </v>
   <v>       0.22807018       0.22807018       0.00000000 </v>
   <v>       0.21052632       0.21052632       0.00000000 </v>
   <v>       0.19298246       0.19298246       0.00000000 </v>
   <v>       0.17543860       0.17543860       0.00000000 </v>
   <v>       0.15789474       0.15789474       0.00000000 </v>
   <v>       0.14035088       0.14035088       0.00000000 </v>
   <v>       0.12280702       0.12280702       0.00000000 </v>
   <v>       0.10526316       0.10526316       0.00000000 </v>
   <v>       0.08771930       0.08771930       0.00000000 </v>
   <v>       0.07017544       0.07017544       0.00000000 </v>
   <v>       0.05263158       0.05263158       0.00000000 </v>
   <v>       0.03508772       0.03508772       0.00000000 </v>
   <v>       0.01754386       0.01754386       0.00000000 </v>
   <v>       0.00000000       0.00000000       0.00000000 </v>
  </varray>
  <varray name="weights" >
   <v>       0.01666667 </v>
   <v>       0.01666667 </v>
   <v>       0.01666667 </v>
   <v>       0.01666667 </v>
   <v>       0.01666667 </v>
   <v>       0.01666667 </v>
   <v>       0.01666667 </v>
   <v>       0.01666667 </v>
   <v>       0.01666667 </v>
   <v>       0.01666667 </v>
   <v>       0.01666667 </v>
   <v>       0.01666667 </v>
   <v>       0.01666667 </v>
   <v>       0.01666667 </v>
   <v>       0.01666667 </v>
   <v>       0.01666667 </v>
   <v>       0.01666667 </v>
   <v>       0.01666667 </v>
   <v>       0.01666667 </v>
   <v>       0.01666667 </v>
   <v>       0.01666667 </v>
   <v>       0.01666667 </v>
   <v>       0.01666667 </v>
   <v>       0.01666667 </v>
   <v>       0.01666667 </v>
   <v>       0.01666667 </v>
   <v>       0.01666667 </v>
   <v>       0.01666667 </v>
   <v>       0.01666667 </v>
   <v>       0.01666667 </v>
   <v>       0.01666667 </v>
   <v>       0.01666667 </v>
   <v>       0.01666667 </v>
   <v>       0.01666667 </v>
   <v>       0.01666667 </v>
   <v>       0.01666667 </v>
   <v>       0.01666667 </v>
   <v>       0.01666667 </v>
   <v>       0.01666667 </v>
   <v>       0.01666667 </v>
   <v>       0.01666667 </v>
   <v>       0.01666667 </v>
   <v>       0.01666667 </v>
   <v>       0.01666667 </v>
   <v>       0.01666667 </v>
   <v>       0.01666667 </v>
   <v>       0.01666667 </v>
   <v>       0.01666667 </v>
   <v>       0.01666667 </v>
   <v>       0.01666667 </v>
   <v>       0.01666667 </v>
   <v>       0.01666667 </v>
   <v>       0.01666667 </v>
   <v>       0.01666667 </v>
   <v>       0.01666667 </v>
   <v>       0.01666667 </v>
   <v>       0.01666667 </v>
   <v>       0.01666667 </v>
   <v>       0.01666667 </v>
   <v>       0.01666667 </v>
  </varray>
 </kpoints>
 <parameters>
  <separator name="general" >
   <i type="string" name="SYSTEM">Simulation for cell shape cell volume r</i>
   <i type="logical" name="LCOMPAT"> F  </i>
  </separator>
  <separator name="electronic" >
   <i type="string" name="PREC">high</i>
   <i name="ENMAX">    500.00000000</i>
   <i name="ENAUG">    644.87300000</i>
   <i name="EDIFF">      0.00001000</i>
   <i type="int" name="IALGO">    38</i>
   <i type="int" name="IWAVPR">    10</i>
   <i type="int" name="NBANDS">   256</i>
   <i name="NELECT">    366.00000000</i>
   <i type="int" name="TURBO">     0</i>
   <i type="int" name="IRESTART">     0</i>
   <i type="int" name="NREBOOT">     0</i>
   <i type="int" name="NMIN">     0</i>
   <i name="EREF">      0.00000000</i>
   <separator name="electronic smearing" >
    <i type="int" name="ISMEAR">     0</i>
    <i name="SIGMA">      0.01000000</i>
    <i name="KSPACING">      0.50000000</i>
    <i type="logical" name="KGAMMA"> T  </i>
   </separator>
   <separator name="electronic projectors" >
    <i type="logical" name="LREAL"> T  </i>
    <v name="ROPT">     -0.00040000     -0.00040000     -0.00040000</v>
    <i type="int" name="LMAXPAW">  -100</i>
    <i type="int" name="LMAXMIX">     2</i>
    <i type="logical" name="NLSPLINE"> F  </i>
   </separator>
   <separator name="electronic startup" >
    <i type="int" name="ISTART">     1</i>
    <i type="int" name="ICHARG">    11</i>
    <i type="int" name="INIWAV">     1</i>
   </separator>
   <separator name="electronic spin" >
    <i type="int" name="ISPIN">     1</i>
    <i type="logical" name="LNONCOLLINEAR"> F  </i>
    <v name="MAGMOM">      1.00000000      1.00000000      1.00000000      1.00000000      1.00000000      1.00000000      1.00000000      1.00000000      1.00000000      1.00000000      1.00000000      1.00000000      1.00000000      1.00000000      1.00000000      1.00000000      1.00000000      1.00000000      1.00000000      1.00000000
      1.00000000      1.00000000      1.00000000      1.00000000      1.00000000      1.00000000      1.00000000      1.00000000      1.00000000      1.00000000      1.00000000      1.00000000      1.00000000      1.00000000      1.00000000      1.00000000      1.00000000      1.00000000      1.00000000      1.00000000
      1.00000000      1.00000000      1.00000000      1.00000000      1.00000000      1.00000000      1.00000000      1.00000000      1.00000000      1.00000000      1.00000000      1.00000000      1.00000000      1.00000000      1.00000000      1.00000000      1.00000000      1.00000000      1.00000000      1.00000000
      1.00000000      1.00000000      1.00000000      1.00000000      1.00000000      1.00000000      1.00000000      1.00000000      1.00000000      1.00000000      1.00000000      1.00000000      1.00000000      1.00000000      1.00000000      1.00000000      1.00000000      1.00000000      1.00000000      1.00000000
      1.00000000      1.00000000      1.00000000      1.00000000      1.00000000      1.00000000      1.00000000      1.00000000      1.00000000      1.00000000      1.00000000      1.00000000      1.00000000      1.00000000      1.00000000      1.00000000      1.00000000      1.00000000      1.00000000      1.00000000
      1.00000000      1.00000000      1.00000000      1.00000000      1.00000000      1.00000000      1.00000000      1.00000000      1.00000000      1.00000000      1.00000000      1.00000000      1.00000000      1.00000000      1.00000000      1.00000000      1.00000000      1.00000000      1.00000000      1.00000000
</v>
    <i name="NUPDOWN">     -1.00000000</i>
    <i type="logical" name="LSORBIT"> F  </i>
    <v name="SAXIS">      0.00000000      0.00000000      1.00000000</v>
    <i type="logical" name="LSPIRAL"> F  </i>
    <v name="QSPIRAL">      0.00000000      0.00000000      0.00000000</v>
    <i type="logical" name="LZEROZ"> F  </i>
   </separator>
   <separator name="electronic exchange-correlation" >
    <i type="logical" name="LASPH"> F  </i>
    <i type="logical" name="LMETAGGA"> F  </i>
   </separator>
   <separator name="electronic convergence" >
    <i type="int" name="NELM">   200</i>
    <i type="int" name="NELMDL">     0</i>
    <i type="int" name="NELMIN">     2</i>
    <i name="ENINI">    500.00000000</i>
    <separator name="electronic convergence detail" >
     <i type="logical" name="LDIAG"> T  </i>
     <i type="logical" name="LSUBROT"> F  </i>
     <i name="WEIMIN">      0.00000000</i>
     <i name="EBREAK">      0.00000001</i>
     <i name="DEPER">      0.30000000</i>
     <i type="int" name="NRMM">     4</i>
     <i name="TIME">      0.40000000</i>
    </separator>
   </separator>
   <separator name="electronic mixer" >
    <i name="AMIX">      0.40000000</i>
    <i name="BMIX">      1.00000000</i>
    <i name="AMIN">      0.10000000</i>
    <i name="AMIX_MAG">      1.60000000</i>
    <i name="BMIX_MAG">      1.00000000</i>
    <separator name="electronic mixer details" >
     <i type="int" name="IMIX">     4</i>
     <i type="logical" name="MIXFIRST"> F  </i>
     <i type="int" name="MAXMIX">   -45</i>
     <i name="WC">    100.00000000</i>
     <i type="int" name="INIMIX">     1</i>
     <i type="int" name="MIXPRE">     1</i>
     <i type="int" name="MREMOVE">     5</i>
    </separator>
   </separator>
   <separator name="electronic dipolcorrection" >
    <i type="logical" name="LDIPOL"> F  </i>
    <i type="logical" name="LMONO"> F  </i>
    <i type="int" name="IDIPOL">     0</i>
    <i name="EPSILON">      1.00000000</i>
    <v name="DIPOL">   -100.00000000   -100.00000000   -100.00000000</v>
    <i name="EFIELD">      0.00000000</i>
   </separator>
  </separator>
  <separator name="grids" >
   <i type="int" name="NGX">   168</i>
   <i type="int" name="NGY">   168</i>
   <i type="int" name="NGZ">   150</i>
   <i type="int" name="NGXF">   256</i>
   <i type="int" name="NGYF">   256</i>
   <i type="int" name="NGZF">   224</i>
   <i type="logical" name="ADDGRID"> F  </i>
  </separator>
  <separator name="ionic" >
   <i type="int" name="NSW">     0</i>
   <i type="int" name="IBRION">    -1</i>
   <i type="int" name="MDALGO">     0</i>
   <i type="int" name="ISIF">     2</i>
   <i name="PSTRESS">      0.00000000</i>
   <i name="EDIFFG">     -0.01000000</i>
   <i type="int" name="NFREE">     0</i>
   <i name="POTIM">      0.30000000</i>
   <i name="SMASS">     -3.00000000</i>
   <i name="SCALEE">      1.00000000</i>
  </separator>
  <separator name="ionic md" >
   <i name="TEBEG">      0.00010000</i>
   <i name="TEEND">      0.00010000</i>
   <i type="int" name="NBLOCK">     1</i>
   <i type="int" name="KBLOCK">     1</i>
   <i type="int" name="NPACO">   256</i>
   <i name="APACO">     16.00000000</i>
  </separator>
  <separator name="symmetry" >
   <i type="int" name="ISYM">     2</i>
   <i name="SYMPREC">      0.00001000</i>
  </separator>
  <separator name="dos" >
   <i type="int" name="LORBIT">     0</i>
   <v name="RWIGS">     -1.00000000     -1.00000000     -1.00000000</v>
   <i type="int" name="NEDOS">   301</i>
   <i name="EMIN">     10.00000000</i>
   <i name="EMAX">    -10.00000000</i>
   <i name="EFERMI">      0.00000000</i>
  </separator>
  <separator name="writing" >
   <i type="int" name="NWRITE">     0</i>
   <i type="logical" name="LWAVE"> F  </i>
   <i type="logical" name="LDOWNSAMPLE"> F  </i>
   <i type="logical" name="LCHARG"> F  </i>
   <i type="logical" name="LPARD"> F  </i>
   <i type="logical" name="LVTOT"> F  </i>
   <i type="logical" name="LVHAR"> F  </i>
   <i type="logical" name="LELF"> F  </i>
   <i type="logical" name="LOPTICS"> F  </i>
   <v name="STM">      0.00000000      0.00000000      0.00000000      0.00000000      0.00000000      0.00000000      0.00000000</v>
  </separator>
  <separator name="performance" >
   <i type="int" name="NPAR">    16</i>
   <i type="int" name="NSIM">     4</i>
   <i type="int" name="NBLK">    -1</i>
   <i type="logical" name="LPLANE"> T  </i>
   <i type="logical" name="LSCALAPACK"> T  </i>
   <i type="logical" name="LSCAAWARE"> F  </i>
   <i type="logical" name="LSCALU"> F  </i>
   <i type="logical" name="LASYNC"> F  </i>
   <i type="logical" name="LORBITALREAL"> F  </i>
  </separator>
  <separator name="miscellaneous" >
   <i type="int" name="IDIOT">     3</i>
   <i type="int" name="ISPECIAL">     0</i>
   <i type="logical" name="LMUSIC"> F  </i>
   <v name="POMASS">     12.01100000      1.00000000     14.00100000</v>
   <v name="DARWINR">      0.00000000      0.00000000      0.00000000</v>
   <v name="DARWINV">      1.00000000      1.00000000      1.00000000</v>
   <i type="logical" name="LCORR"> T  </i>
  </separator>
  <i type="logical" name="GGA_COMPAT"> T  </i>
  <i type="logical" name="LBERRY"> F  </i>
  <i type="int" name="ICORELEVEL">     0</i>
  <i type="logical" name="LDAU"> F  </i>
  <i type="int" name="I_CONSTRAINED_M">     0</i>
  <separator name="electronic exchange-correlation" >
   <i type="string" name="GGA">PE</i>
   <i type="int" name="VOSKOWN">     0</i>
   <i type="logical" name="LHFCALC"> F  </i>
   <i type="string" name="PRECFOCK"></i>
   <i type="logical" name="LSYMGRAD"> F  </i>
   <i type="logical" name="LHFONE"> F  </i>
   <i type="logical" name="LRHFCALC"> F  </i>
   <i type="logical" name="LTHOMAS"> F  </i>
   <i type="logical" name="LMODELHF"> F  </i>
   <i name="ENCUT4O">     -1.00000000</i>
   <i type="int" name="EXXOEP">     0</i>
   <i type="int" name="FOURORBIT">     0</i>
   <i name="AEXX">      0.00000000</i>
   <i name="HFALPHA">      0.00000000</i>
   <i name="MCALPHA">      0.00000000</i>
   <i name="ALDAX">      1.00000000</i>
   <i name="AGGAX">      1.00000000</i>
   <i name="ALDAC">      1.00000000</i>
   <i name="AGGAC">      1.00000000</i>
   <i type="int" name="NKREDX">     1</i>
   <i type="int" name="NKREDY">     1</i>
   <i type="int" name="NKREDZ">     1</i>
   <i type="logical" name="SHIFTRED"> F  </i>
   <i type="logical" name="ODDONLY"> F  </i>
   <i type="logical" name="EVENONLY"> F  </i>
   <i type="int" name="LMAXFOCK">     0</i>
   <i type="int" name="NMAXFOCKAE">     0</i>
   <i type="logical" name="LFOCKAEDFT"> F  </i>
   <i name="HFSCREEN">      0.00000000</i>
   <i name="HFSCREENC">      0.00000000</i>
   <i type="int" name="NBANDSGWLOW">     0</i>
  </separator>
  <separator name="vdW DFT" >
   <i type="logical" name="LUSE_VDW"> F  </i>
   <i name="Zab_VDW">     -0.84910000</i>
   <i name="PARAM1">      0.12340000</i>
   <i name="PARAM2">      1.00000000</i>
   <i name="PARAM3">      0.00000000</i>
  </separator>
  <separator name="model GW" >
   <i type="int" name="MODEL_GW">     0</i>
   <i name="MODEL_EPS0">     46.15184625</i>
   <i name="MODEL_ALPHA">      1.00000000</i>
  </separator>
  <separator name="linear response parameters" >
   <i type="logical" name="LEPSILON"> F  </i>
   <i type="logical" name="LRPA"> F  </i>
   <i type="logical" name="LNABLA"> F  </i>
   <i type="logical" name="LVEL"> F  </i>
   <i type="int" name="KINTER">     0</i>
   <i name="CSHIFT">      0.10000000</i>
   <i name="OMEGAMAX">     -1.00000000</i>
   <i name="DEG_THRESHOLD">      0.00200000</i>
   <i name="RTIME">     -0.10000000</i>
   <i name="WPLASMAI">      0.00000000</i>
   <v name="DFIELD">      0.00000000      0.00000000      0.00000000</v>
   <v name="WPLASMA">      0.00000000      0.00000000      0.00000000      0.00000000      0.00000000      0.00000000      0.00000000      0.00000000      0.00000000</v>
  </separator>
  <separator name="orbital magnetization" >
   <i type="logical" name="NUCIND"> F  </i>
   <v name="MAGPOS">      0.00000000      0.00000000      0.00000000</v>
   <i type="logical" name="LNICSALL"> T  </i>
   <i type="logical" name="ORBITALMAG"> F  </i>
   <i type="logical" name="LMAGBLOCH"> F  </i>
   <i type="logical" name="LCHIMAG"> F  </i>
   <i type="logical" name="LGAUGE"> T  </i>
   <i type="int" name="MAGATOM">     0</i>
   <v name="MAGDIPOL">      0.00000000      0.00000000      0.00000000</v>
   <v name="AVECCONST">      0.00000000      0.00000000      0.00000000</v>
  </separator>
  <separator name="response functions" >
   <i type="logical" name="LADDER"> F  </i>
   <i type="logical" name="LRPAFORCE"> F  </i>
   <i type="logical" name="LFXC"> F  </i>
   <i type="logical" name="LHARTREE"> T  </i>
   <i type="int" name="IBSE">     0</i>
   <v type="int" name="KPOINT">    -1     0     0     0</v>
   <i type="logical" name="LTCTE"> F  </i>
   <i type="logical" name="LTETE"> F  </i>
   <i type="logical" name="LTRIPLET"> F  </i>
   <i type="logical" name="LFXCEPS"> F  </i>
   <i type="logical" name="LFXHEG"> F  </i>
   <i type="int" name="NATURALO">     2</i>
   <i type="logical" name="L2ORDER"> F  </i>
   <i type="logical" name="LMP2LT"> F  </i>
   <i type="logical" name="LUSEW"> F  </i>
   <i name="ENCUTGW">     -2.00000000</i>
   <i name="ENCUTGWSOFT">     -2.00000000</i>
   <i name="ENCUTLF">     -1.00000000</i>
   <i type="int" name="LMAXMP2">    -1</i>
   <i name="SCISSOR">      0.00000000</i>
   <i type="int" name="NOMEGA">     0</i>
   <i type="int" name="NOMEGAR">     0</i>
   <i type="int" name="NBANDSGW">    -1</i>
   <i type="int" name="NBANDSO">    -1</i>
   <i type="int" name="NBANDSV">    -1</i>
   <i type="int" name="NELM">   200</i>
   <i type="int" name="NELMHF">     1</i>
   <i type="int" name="DIM">     3</i>
   <i type="int" name="ANTIRES">     0</i>
   <i name="OMEGAMAX">    -30.00000000</i>
   <i name="OMEGAMIN">    -30.00000000</i>
   <i name="OMEGATL">   -200.00000000</i>
   <i type="int" name="OMEGAGRID">   140</i>
   <i name="CSHIFT">     -0.10000000</i>
   <i type="logical" name="SELFENERGY"> F  </i>
   <i type="logical" name="LSPECTRAL"> F  </i>
   <i type="logical" name="LSPECTRALGW"> F  </i>
   <i type="logical" name="LSINGLES"> F  </i>
   <i type="logical" name="LFERMIGW"> F  </i>
   <i type="logical" name="ODDONLYGW"> F  </i>
   <i type="logical" name="EVENONLYGW"> F  </i>
   <i type="int" name="NKREDLFX">     1</i>
   <i type="int" name="NKREDLFY">     1</i>
   <i type="int" name="NKREDLFZ">     1</i>
   <i type="int" name="MAXMEM">  2800</i>
   <i type="int" name="TELESCOPE">     0</i>
   <i type="int" name="TAUPAR">     1</i>
   <i type="int" name="OMEGAPAR">    -1</i>
   <i name="LAMBDA">      1.00000000</i>
  </separator>
  <separator name="External order field" >
   <i name="OFIELD_KAPPA">      0.00000000</i>
   <v name="OFIELD_K">      0.00000000      0.00000000      0.00000000</v>
   <i name="OFIELD_Q6_NEAR">      0.00000000</i>
   <i name="OFIELD_Q6_FAR">      0.00000000</i>
   <i name="OFIELD_A">      0.00000000</i>
  </separator>
  <separator name="solvation model" >
   <i type="logical" name="LSOL"> F  </i>
  </separator>
 </parameters>
 <atominfo>
  <atoms>     120 </atoms>
  <types>       3 </types>
  <array name="atoms" >
   <dimension dim="1">ion</dimension>
   <field type="string">element</field>
   <field type="int">atomtype</field>
   <set>
    <rc><c>C </c><c>   1</c></rc>
    <rc><c>C </c><c>   1</c></rc>
    <rc><c>C </c><c>   1</c></rc>
    <rc><c>C </c><c>   1</c></rc>
    <rc><c>C </c><c>   1</c></rc>
    <rc><c>C </c><c>   1</c></rc>
    <rc><c>C </c><c>   1</c></rc>
    <rc><c>C </c><c>   1</c></rc>
    <rc><c>C </c><c>   1</c></rc>
    <rc><c>C </c><c>   1</c></rc>
    <rc><c>C </c><c>   1</c></rc>
    <rc><c>C </c><c>   1</c></rc>
    <rc><c>C </c><c>   1</c></rc>
    <rc><c>C </c><c>   1</c></rc>
    <rc><c>C </c><c>   1</c></rc>
    <rc><c>C </c><c>   1</c></rc>
    <rc><c>C </c><c>   1</c></rc>
    <rc><c>C </c><c>   1</c></rc>
    <rc><c>C </c><c>   1</c></rc>
    <rc><c>C </c><c>   1</c></rc>
    <rc><c>C </c><c>   1</c></rc>
    <rc><c>C </c><c>   1</c></rc>
    <rc><c>C </c><c>   1</c></rc>
    <rc><c>C </c><c>   1</c></rc>
    <rc><c>C </c><c>   1</c></rc>
    <rc><c>C </c><c>   1</c></rc>
    <rc><c>C </c><c>   1</c></rc>
    <rc><c>C </c><c>   1</c></rc>
    <rc><c>C </c><c>   1</c></rc>
    <rc><c>C </c><c>   1</c></rc>
    <rc><c>C </c><c>   1</c></rc>
    <rc><c>C </c><c>   1</c></rc>
    <rc><c>C </c><c>   1</c></rc>
    <rc><c>C </c><c>   1</c></rc>
    <rc><c>C </c><c>   1</c></rc>
    <rc><c>C </c><c>   1</c></rc>
    <rc><c>C </c><c>   1</c></rc>
    <rc><c>C </c><c>   1</c></rc>
    <rc><c>C </c><c>   1</c></rc>
    <rc><c>C </c><c>   1</c></rc>
    <rc><c>C </c><c>   1</c></rc>
    <rc><c>C </c><c>   1</c></rc>
    <rc><c>C </c><c>   1</c></rc>
    <rc><c>C </c><c>   1</c></rc>
    <rc><c>C </c><c>   1</c></rc>
    <rc><c>C </c><c>   1</c></rc>
    <rc><c>C </c><c>   1</c></rc>
    <rc><c>C </c><c>   1</c></rc>
    <rc><c>C </c><c>   1</c></rc>
    <rc><c>C </c><c>   1</c></rc>
    <rc><c>C </c><c>   1</c></rc>
    <rc><c>C </c><c>   1</c></rc>
    <rc><c>C </c><c>   1</c></rc>
    <rc><c>C </c><c>   1</c></rc>
    <rc><c>C </c><c>   1</c></rc>
    <rc><c>C </c><c>   1</c></rc>
    <rc><c>C </c><c>   1</c></rc>
    <rc><c>C </c><c>   1</c></rc>
    <rc><c>C </c><c>   1</c></rc>
    <rc><c>C </c><c>   1</c></rc>
    <rc><c>C </c><c>   1</c></rc>
    <rc><c>C </c><c>   1</c></rc>
    <rc><c>C </c><c>   1</c></rc>
    <rc><c>C </c><c>   1</c></rc>
    <rc><c>C </c><c>   1</c></rc>
    <rc><c>C </c><c>   1</c></rc>
    <rc><c>H </c><c>   2</c></rc>
    <rc><c>H </c><c>   2</c></rc>
    <rc><c>H </c><c>   2</c></rc>
    <rc><c>H </c><c>   2</c></rc>
    <rc><c>H </c><c>   2</c></rc>
    <rc><c>H </c><c>   2</c></rc>
    <rc><c>H </c><c>   2</c></rc>
    <rc><c>H </c><c>   2</c></rc>
    <rc><c>H </c><c>   2</c></rc>
    <rc><c>H </c><c>   2</c></rc>
    <rc><c>H </c><c>   2</c></rc>
    <rc><c>H </c><c>   2</c></rc>
    <rc><c>H </c><c>   2</c></rc>
    <rc><c>H </c><c>   2</c></rc>
    <rc><c>H </c><c>   2</c></rc>
    <rc><c>H </c><c>   2</c></rc>
    <rc><c>H </c><c>   2</c></rc>
    <rc><c>H </c><c>   2</c></rc>
    <rc><c>H </c><c>   2</c></rc>
    <rc><c>H </c><c>   2</c></rc>
    <rc><c>H </c><c>   2</c></rc>
    <rc><c>H </c><c>   2</c></rc>
    <rc><c>H </c><c>   2</c></rc>
    <rc><c>H </c><c>   2</c></rc>
    <rc><c>H </c><c>   2</c></rc>
    <rc><c>H </c><c>   2</c></rc>
    <rc><c>H </c><c>   2</c></rc>
    <rc><c>H </c><c>   2</c></rc>
    <rc><c>H </c><c>   2</c></rc>
    <rc><c>H </c><c>   2</c></rc>
    <rc><c>H </c><c>   2</c></rc>
    <rc><c>H </c><c>   2</c></rc>
    <rc><c>H </c><c>   2</c></rc>
    <rc><c>H </c><c>   2</c></rc>
    <rc><c>H </c><c>   2</c></rc>
    <rc><c>H </c><c>   2</c></rc>
    <rc><c>H </c><c>   2</c></rc>
    <rc><c>H </c><c>   2</c></rc>
    <rc><c>H </c><c>   2</c></rc>
    <rc><c>H </c><c>   2</c></rc>
    <rc><c>H </c><c>   2</c></rc>
    <rc><c>H </c><c>   2</c></rc>
    <rc><c>N </c><c>   3</c></rc>
    <rc><c>N </c><c>   3</c></rc>
    <rc><c>N </c><c>   3</c></rc>
    <rc><c>N </c><c>   3</c></rc>
    <rc><c>N </c><c>   3</c></rc>
    <rc><c>N </c><c>   3</c></rc>
    <rc><c>N </c><c>   3</c></rc>
    <rc><c>N </c><c>   3</c></rc>
    <rc><c>N </c><c>   3</c></rc>
    <rc><c>N </c><c>   3</c></rc>
    <rc><c>N </c><c>   3</c></rc>
    <rc><c>N </c><c>   3</c></rc>
   </set>
  </array>
  <array name="atomtypes" >
   <dimension dim="1">type</dimension>
   <field type="int">atomspertype</field>
   <field type="string">element</field>
   <field>mass</field>
   <field>valence</field>
   <field type="string">pseudopotential</field>
   <set>
    <rc><c>  66</c><c>C </c><c>     12.01100000</c><c>      4.00000000</c><c>  PAW_PBE C 08Apr2002                   </c></rc>
    <rc><c>  42</c><c>H </c><c>      1.00000000</c><c>      1.00000000</c><c>  PAW_PBE H 15Jun2001                   </c></rc>
    <rc><c>  12</c><c>N </c><c>     14.00100000</c><c>      5.00000000</c><c>  PAW_PBE N 08Apr2002                   </c></rc>
   </set>
  </array>
 </atominfo>
 <structure name="initialpos" >
  <crystal>
   <varray name="basis" >
    <v>      23.07871523       0.00744505       0.00000000 </v>
    <v>     -11.53285585      19.99385994       0.00000000 </v>
    <v>      -0.00000000       0.00000000      20.00000000 </v>
   </varray>
   <i name="volume">   9230.36925010 </i>
   <varray name="rec_basis" >
    <v>       0.04332191       0.02498894       0.00000000 </v>
    <v>      -0.00001613       0.05000605      -0.00000000 </v>
    <v>       0.00000000       0.00000000       0.05000000 </v>
   </varray>
  </crystal>
  <varray name="positions" >
   <v>       0.53199424       0.47374432       0.47021890 </v>
   <v>       0.60078753       0.40490647       0.49702160 </v>
   <v>       0.53146019       0.36824021       0.48711341 </v>
   <v>       0.49767572       0.40324851       0.47403209 </v>
   <v>       0.47011734       0.24637768       0.44289880 </v>
   <v>       0.50272286       0.29491812       0.49348275 </v>
   <v>       0.43551733       0.25721904       0.38483256 </v>
   <v>       0.81045567       0.53737636       0.44460561 </v>
   <v>       0.71030433       0.50373903       0.49809468 </v>
   <v>       0.85570023       0.57288898       0.38670004 </v>
   <v>       0.60248065       0.50830150       0.47496310 </v>
   <v>       0.63673510       0.47437416       0.48961081 </v>
   <v>       0.51950743       0.27155557       0.55106841 </v>
   <v>       0.78650938       0.48607449       0.55185832 </v>
   <v>       0.42537584       0.92016146       0.46921489 </v>
   <v>       0.53327664       0.03083240       0.46763115 </v>
   <v>       0.60229676       0.16846348       0.49415177 </v>
   <v>       0.63888753       0.13567266       0.48424422 </v>
   <v>       0.97609420       0.47499241       0.46784771 </v>
   <v>       0.83844639       0.40551605       0.49423048 </v>
   <v>       0.87101966       0.47506272       0.48611473 </v>
   <v>       0.93987628       0.50919586       0.47344492 </v>
   <v>       0.50323300       0.17904596       0.49559592 </v>
   <v>       0.82645282       0.50374669       0.49407235 </v>
   <v>       0.26805420       0.79098972       0.43601804 </v>
   <v>       0.27912227       0.83621098       0.37770085 </v>
   <v>       0.49881715       0.06689463       0.47221507 </v>
   <v>       0.53281299       0.13503536       0.48675405 </v>
   <v>       0.08692776       0.58312238       0.46905186 </v>
   <v>       0.87210663       0.36981834       0.48529819 </v>
   <v>       0.49594166       0.95618696       0.46649181 </v>
   <v>       0.39004113       0.85104761       0.48009747 </v>
   <v>       0.42639095       0.81783371       0.48865015 </v>
   <v>       0.60379656       0.06689528       0.47130362 </v>
   <v>       0.05075007       0.51251093       0.46669339 </v>
   <v>       0.08686732       0.47809528       0.47059055 </v>
   <v>       0.15601539       0.51202018       0.48119919 </v>
   <v>       0.18914685       0.58162982       0.48871598 </v>
   <v>       0.76064123       0.19638428       0.43975536 </v>
   <v>       0.71226992       0.18003607       0.49062998 </v>
   <v>       0.82828522       0.29614032       0.49326393 </v>
   <v>       0.74951961       0.15154085       0.38109086 </v>
   <v>       0.31662455       0.80680764       0.48653835 </v>
   <v>       0.20004804       0.69119811       0.48939438 </v>
   <v>       0.49599753       0.85136077       0.48242669 </v>
   <v>       0.53028248       0.91993512       0.47007632 </v>
   <v>       0.15551135       0.61755372       0.48152513 </v>
   <v>       0.94020912       0.40440429       0.47056738 </v>
   <v>       0.73594006       0.21946998       0.54863568 </v>
   <v>       0.29315159       0.76707286       0.54435833 </v>
   <v>       0.49447755       0.51091213       0.46859377 </v>
   <v>       0.52879072       0.58145293       0.47128989 </v>
   <v>       0.49480566       0.61670141       0.48167426 </v>
   <v>       0.42522378       0.58028415       0.48964012 </v>
   <v>       0.55703307       0.73875525       0.43785520 </v>
   <v>       0.52387459       0.69010016       0.48819776 </v>
   <v>       0.52507739       0.80682749       0.49091648 </v>
   <v>       0.59119559       0.72745420       0.37966005 </v>
   <v>       0.21568830       0.44926600       0.43843156 </v>
   <v>       0.20021364       0.48285450       0.48834333 </v>
   <v>       0.31571221       0.48157712       0.49158577 </v>
   <v>       0.17027881       0.41468184       0.38035875 </v>
   <v>       0.38935348       0.51066974       0.48339817 </v>
   <v>       0.42388872       0.47646196       0.47167122 </v>
   <v>       0.50726794       0.71349000       0.54585397 </v>
   <v>       0.24019850       0.49987090       0.54602314 </v>
   <v>       0.62774513       0.37863845       0.50889796 </v>
   <v>       0.44343705       0.37485386       0.46961808 </v>
   <v>       0.46278971       0.30942487       0.36777109 </v>
   <v>       0.43040410       0.22373405       0.34360538 </v>
   <v>       0.38509464       0.24642867       0.39955603 </v>
   <v>       0.89568868       0.62282919       0.40216474 </v>
   <v>       0.63141873       0.56245593       0.47002149 </v>
   <v>       0.53540647       0.30220328       0.59640379 </v>
   <v>       0.39716945       0.94631778       0.46590066 </v>
   <v>       0.62860679       0.22163414       0.50612153 </v>
   <v>       0.78525860       0.37824146       0.50613489 </v>
   <v>       0.96575339       0.56355735       0.47097500 </v>
   <v>       0.88017398       0.54557829       0.36831045 </v>
   <v>       0.82731741       0.57917081       0.34622802 </v>
   <v>       0.33123992       0.86049287       0.36040379 </v>
   <v>       0.26893909       0.87630743       0.39222859 </v>
   <v>       0.44464459       0.04177846       0.46738298 </v>
   <v>       0.06160555       0.61200917       0.46408934 </v>
   <v>       0.70557495       0.20426747       0.59416412 </v>
   <v>       0.80126421       0.46916824       0.59649503 </v>
   <v>       0.39976463       0.76431475       0.49897937 </v>
   <v>       0.63217846       0.04099927       0.46694941 </v>
   <v>       0.06076434       0.42371690       0.46853770 </v>
   <v>       0.24266017       0.60870166       0.49910466 </v>
   <v>       0.69707646       0.12630357       0.36472750 </v>
   <v>       0.78234403       0.18039400       0.33965784 </v>
   <v>       0.76109667       0.11220694       0.39485362 </v>
   <v>       0.24526489       0.80787211       0.33671764 </v>
   <v>       0.58453890       0.94521113       0.46627374 </v>
   <v>       0.96542717       0.37558795       0.46405147 </v>
   <v>       0.32396234       0.78174839       0.58958814 </v>
   <v>       0.58313568       0.60974152       0.46831858 </v>
   <v>       0.39814993       0.60681960       0.49969639 </v>
   <v>       0.56291652       0.67547466       0.36201577 </v>
   <v>       0.59738267       0.76169888       0.33880790 </v>
   <v>       0.64111673       0.73677124       0.39443742 </v>
   <v>       0.14640233       0.44272931       0.36245012 </v>
   <v>       0.19840432       0.40835768       0.33965296 </v>
   <v>       0.12986174       0.36480283       0.39539331 </v>
   <v>       0.39509628       0.42218762       0.46805950 </v>
   <v>       0.49069338       0.68250751       0.59094927 </v>
   <v>       0.22580313       0.51674672       0.59092449 </v>
   <v>       0.47168333       0.18868843       0.44424068 </v>
   <v>       0.75133496       0.53603962       0.44689389 </v>
   <v>       0.52027635       0.21419724       0.55301713 </v>
   <v>       0.72853969       0.48561656       0.55479100 </v>
   <v>       0.21007196       0.73209190       0.43771425 </v>
   <v>       0.81845265       0.25545150       0.44142356 </v>
   <v>       0.79336135       0.27747612       0.55081715 </v>
   <v>       0.23538999       0.70938662       0.54669856 </v>
   <v>       0.55635891       0.79690281       0.43951031 </v>
   <v>       0.27445275       0.44982249       0.44036936 </v>
   <v>       0.50744941       0.77134333       0.54813727 </v>
   <v>       0.29787077       0.49974778       0.54847963 </v>
  </varray>
 </structure>
 <calculation>
  <scstep>
   <time name="dav">  393.10  397.28</time>
   <time name="total">  393.24  397.43</time>
   <energy>
    <i name="alphaZ">     68.05544140 </i>
    <i name="ewald">  43541.86076970 </i>
    <i name="hartreedc"> -54576.89187408 </i>
    <i name="XCdc">   1263.83475907 </i>
    <i name="pawpsdc">  33717.52197253 </i>
    <i name="pawaedc"> -33780.23122591 </i>
    <i name="eentropy">     -0.00000000 </i>
    <i name="bandstr">  -4488.14246918 </i>
    <i name="atom">  13410.64407879 </i>
    <i name="e_fr_energy">   -843.34854768 </i>
    <i name="e_wo_entrp">   -843.34854768 </i>
    <i name="e_0_energy">   -843.34854768 </i>
   </energy>
  </scstep>
  <scstep>
   <time name="dav">  434.04  438.50</time>
   <time name="total">  434.04  438.51</time>
   <energy>
    <i name="e_fr_energy">   -844.11425838 </i>
    <i name="e_wo_entrp">   -844.11425838 </i>
    <i name="e_0_energy">   -844.11425838 </i>
   </energy>
  </scstep>
  <scstep>
   <time name="dav">  473.95  479.12</time>
   <time name="total">  473.96  479.12</time>
   <energy>
    <i name="e_fr_energy">   -844.13354556 </i>
    <i name="e_wo_entrp">   -844.13354556 </i>
    <i name="e_0_energy">   -844.13354556 </i>
   </energy>
  </scstep>
  <scstep>
   <time name="dav">  432.98  437.61</time>
   <time name="total">  432.98  437.61</time>
   <energy>
    <i name="e_fr_energy">   -844.13389304 </i>
    <i name="e_wo_entrp">   -844.13389304 </i>
    <i name="e_0_energy">   -844.13389304 </i>
   </energy>
  </scstep>
  <scstep>
   <time name="dav">  424.40  429.02</time>
   <time name="total">  424.40  429.02</time>
   <energy>
    <i name="e_fr_energy">   -844.13391015 </i>
    <i name="e_wo_entrp">   -844.13391015 </i>
    <i name="e_0_energy">   -844.13391015 </i>
   </energy>
  </scstep>
  <scstep>
   <time name="dav">  340.91  344.80</time>
   <time name="total">  340.92  344.80</time>
   <energy>
    <i name="alphaZ">     68.05544140 </i>
    <i name="ewald">  43541.86076970 </i>
    <i name="hartreedc"> -54576.89187408 </i>
    <i name="XCdc">   1263.83475907 </i>
    <i name="pawpsdc">  33717.52197253 </i>
    <i name="pawaedc"> -33780.23122591 </i>
    <i name="eentropy">     -0.00000000 </i>
    <i name="bandstr">  -4488.92783223 </i>
    <i name="atom">  13410.64407879 </i>
    <i name="e_fr_energy">   -844.13391073 </i>
    <i name="e_wo_entrp">   -844.13391073 </i>
    <i name="e_0_energy">   -844.13391073 </i>
   </energy>
  </scstep>
  <structure>
   <crystal>
    <varray name="basis" >
     <v>      23.07871523       0.00744505       0.00000000 </v>
     <v>     -11.53285585      19.99385994       0.00000000 </v>
     <v>      -0.00000000       0.00000000      20.00000000 </v>
    </varray>
    <i name="volume">   9230.36925010 </i>
    <varray name="rec_basis" >
     <v>       0.04332191       0.02498894       0.00000000 </v>
     <v>      -0.00001613       0.05000605      -0.00000000 </v>
     <v>       0.00000000       0.00000000       0.05000000 </v>
    </varray>
   </crystal>
   <varray name="positions" >
    <v>       0.53199424       0.47374432       0.47021890 </v>
    <v>       0.60078753       0.40490647       0.49702160 </v>
    <v>       0.53146019       0.36824021       0.48711341 </v>
    <v>       0.49767572       0.40324851       0.47403209 </v>
    <v>       0.47011734       0.24637768       0.44289880 </v>
    <v>       0.50272286       0.29491812       0.49348275 </v>
    <v>       0.43551733       0.25721904       0.38483256 </v>
    <v>       0.81045567       0.53737636       0.44460561 </v>
    <v>       0.71030433       0.50373903       0.49809468 </v>
    <v>       0.85570023       0.57288898       0.38670004 </v>
    <v>       0.60248065       0.50830150       0.47496310 </v>
    <v>       0.63673510       0.47437416       0.48961081 </v>
    <v>       0.51950743       0.27155557       0.55106841 </v>
    <v>       0.78650938       0.48607449       0.55185832 </v>
    <v>       0.42537584       0.92016146       0.46921489 </v>
    <v>       0.53327664       0.03083240       0.46763115 </v>
    <v>       0.60229676       0.16846348       0.49415177 </v>
    <v>       0.63888753       0.13567266       0.48424422 </v>
    <v>       0.97609420       0.47499241       0.46784771 </v>
    <v>       0.83844639       0.40551605       0.49423048 </v>
    <v>       0.87101966       0.47506272       0.48611473 </v>
    <v>       0.93987628       0.50919586       0.47344492 </v>
    <v>       0.50323300       0.17904596       0.49559592 </v>
    <v>       0.82645282       0.50374669       0.49407235 </v>
    <v>       0.26805420       0.79098972       0.43601804 </v>
    <v>       0.27912227       0.83621098       0.37770085 </v>
    <v>       0.49881715       0.06689463       0.47221507 </v>
    <v>       0.53281299       0.13503536       0.48675405 </v>
    <v>       0.08692776       0.58312238       0.46905186 </v>
    <v>       0.87210663       0.36981834       0.48529819 </v>
    <v>       0.49594166       0.95618696       0.46649181 </v>
    <v>       0.39004113       0.85104761       0.48009747 </v>
    <v>       0.42639095       0.81783371       0.48865015 </v>
    <v>       0.60379656       0.06689528       0.47130362 </v>
    <v>       0.05075007       0.51251093       0.46669339 </v>
    <v>       0.08686732       0.47809528       0.47059055 </v>
    <v>       0.15601539       0.51202018       0.48119919 </v>
    <v>       0.18914685       0.58162982       0.48871598 </v>
    <v>       0.76064123       0.19638428       0.43975536 </v>
    <v>       0.71226992       0.18003607       0.49062998 </v>
    <v>       0.82828522       0.29614032       0.49326393 </v>
    <v>       0.74951961       0.15154085       0.38109086 </v>
    <v>       0.31662455       0.80680764       0.48653835 </v>
    <v>       0.20004804       0.69119811       0.48939438 </v>
    <v>       0.49599753       0.85136077       0.48242669 </v>
    <v>       0.53028248       0.91993512       0.47007632 </v>
    <v>       0.15551135       0.61755372       0.48152513 </v>
    <v>       0.94020912       0.40440429       0.47056738 </v>
    <v>       0.73594006       0.21946998       0.54863568 </v>
    <v>       0.29315159       0.76707286       0.54435833 </v>
    <v>       0.49447755       0.51091213       0.46859377 </v>
    <v>       0.52879072       0.58145293       0.47128989 </v>
    <v>       0.49480566       0.61670141       0.48167426 </v>
    <v>       0.42522378       0.58028415       0.48964012 </v>
    <v>       0.55703307       0.73875525       0.43785520 </v>
    <v>       0.52387459       0.69010016       0.48819776 </v>
    <v>       0.52507739       0.80682749       0.49091648 </v>
    <v>       0.59119559       0.72745420       0.37966005 </v>
    <v>       0.21568830       0.44926600       0.43843156 </v>
    <v>       0.20021364       0.48285450       0.48834333 </v>
    <v>       0.31571221       0.48157712       0.49158577 </v>
    <v>       0.17027881       0.41468184       0.38035875 </v>
    <v>       0.38935348       0.51066974       0.48339817 </v>
    <v>       0.42388872       0.47646196       0.47167122 </v>
    <v>       0.50726794       0.71349000       0.54585397 </v>
    <v>       0.24019850       0.49987090       0.54602314 </v>
    <v>       0.62774513       0.37863845       0.50889796 </v>
    <v>       0.44343705       0.37485386       0.46961808 </v>
    <v>       0.46278971       0.30942487       0.36777109 </v>
    <v>       0.43040410       0.22373405       0.34360538 </v>
    <v>       0.38509464       0.24642867       0.39955603 </v>
    <v>       0.89568868       0.62282919       0.40216474 </v>
    <v>       0.63141873       0.56245593       0.47002149 </v>
    <v>       0.53540647       0.30220328       0.59640379 </v>
    <v>       0.39716945       0.94631778       0.46590066 </v>
    <v>       0.62860679       0.22163414       0.50612153 </v>
    <v>       0.78525860       0.37824146       0.50613489 </v>
    <v>       0.96575339       0.56355735       0.47097500 </v>
    <v>       0.88017398       0.54557829       0.36831045 </v>
    <v>       0.82731741       0.57917081       0.34622802 </v>
    <v>       0.33123992       0.86049287       0.36040379 </v>
    <v>       0.26893909       0.87630743       0.39222859 </v>
    <v>       0.44464459       0.04177846       0.46738298 </v>
    <v>       0.06160555       0.61200917       0.46408934 </v>
    <v>       0.70557495       0.20426747       0.59416412 </v>
    <v>       0.80126421       0.46916824       0.59649503 </v>
    <v>       0.39976463       0.76431475       0.49897937 </v>
    <v>       0.63217846       0.04099927       0.46694941 </v>
    <v>       0.06076434       0.42371690       0.46853770 </v>
    <v>       0.24266017       0.60870166       0.49910466 </v>
    <v>       0.69707646       0.12630357       0.36472750 </v>
    <v>       0.78234403       0.18039400       0.33965784 </v>
    <v>       0.76109667       0.11220694       0.39485362 </v>
    <v>       0.24526489       0.80787211       0.33671764 </v>
    <v>       0.58453890       0.94521113       0.46627374 </v>
    <v>       0.96542717       0.37558795       0.46405147 </v>
    <v>       0.32396234       0.78174839       0.58958814 </v>
    <v>       0.58313568       0.60974152       0.46831858 </v>
    <v>       0.39814993       0.60681960       0.49969639 </v>
    <v>       0.56291652       0.67547466       0.36201577 </v>
    <v>       0.59738267       0.76169888       0.33880790 </v>
    <v>       0.64111673       0.73677124       0.39443742 </v>
    <v>       0.14640233       0.44272931       0.36245012 </v>
    <v>       0.19840432       0.40835768       0.33965296 </v>
    <v>       0.12986174       0.36480283       0.39539331 </v>
    <v>       0.39509628       0.42218762       0.46805950 </v>
    <v>       0.49069338       0.68250751       0.59094927 </v>
    <v>       0.22580313       0.51674672       0.59092449 </v>
    <v>       0.47168333       0.18868843       0.44424068 </v>
    <v>       0.75133496       0.53603962       0.44689389 </v>
    <v>       0.52027635       0.21419724       0.55301713 </v>
    <v>       0.72853969       0.48561656       0.55479100 </v>
    <v>       0.21007196       0.73209190       0.43771425 </v>
    <v>       0.81845265       0.25545150       0.44142356 </v>
    <v>       0.79336135       0.27747612       0.55081715 </v>
    <v>       0.23538999       0.70938662       0.54669856 </v>
    <v>       0.55635891       0.79690281       0.43951031 </v>
    <v>       0.27445275       0.44982249       0.44036936 </v>
    <v>       0.50744941       0.77134333       0.54813727 </v>
    <v>       0.29787077       0.49974778       0.54847963 </v>
   </varray>
  </structure>
  <varray name="forces" >
   <v>      -0.00085011      -0.00056016       0.00220138 </v>
   <v>      -0.00031835      -0.00045111       0.00095701 </v>
   <v>       0.00195513      -0.00078762      -0.00361357 </v>
   <v>      -0.00159825       0.00187684       0.00057944 </v>
   <v>       0.00421095       0.00176898       0.00065192 </v>
   <v>      -0.00127333      -0.00156225       0.00254108 </v>
   <v>       0.00193243       0.00284945      -0.00020530 </v>
   <v>       0.00112035      -0.00026712       0.00382151 </v>
   <v>      -0.00360157      -0.00221098      -0.00180674 </v>
   <v>       0.00314089       0.00050987       0.00021474 </v>
   <v>       0.00080404      -0.00117439      -0.00271070 </v>
   <v>       0.00190023      -0.00106564       0.00114633 </v>
   <v>      -0.00136559      -0.00303753       0.00300718 </v>
   <v>      -0.00185667      -0.00215131      -0.00206466 </v>
   <v>       0.00339940      -0.00009804       0.00124039 </v>
   <v>       0.00171898      -0.00019467       0.00139114 </v>
   <v>      -0.00284132      -0.00238712       0.00063243 </v>
   <v>       0.00135806       0.00225209      -0.00220496 </v>
   <v>       0.00125036      -0.00007133      -0.00042384 </v>
   <v>       0.00042518       0.00226427       0.00125459 </v>
   <v>      -0.00330730       0.00167414       0.00058869 </v>
   <v>      -0.00166057      -0.00023021       0.00214708 </v>
   <v>      -0.00012035      -0.00079525      -0.00407140 </v>
   <v>      -0.00119122      -0.00293566      -0.00107858 </v>
   <v>       0.00458117       0.00141591       0.00051437 </v>
   <v>       0.00331331      -0.00249233      -0.00027201 </v>
   <v>      -0.00054157      -0.00153668       0.00029412 </v>
   <v>      -0.00465282      -0.00077168      -0.00054634 </v>
   <v>       0.00076456      -0.00039037       0.00142036 </v>
   <v>       0.00158405      -0.00101281       0.00126282 </v>
   <v>       0.00106181      -0.00227336       0.00007860 </v>
   <v>      -0.00062583      -0.00129033       0.00148259 </v>
   <v>      -0.00146004      -0.00079296      -0.00199697 </v>
   <v>       0.00052181      -0.00049944       0.00053296 </v>
   <v>      -0.00006437      -0.00121294      -0.00062818 </v>
   <v>      -0.00322733      -0.00254728      -0.00153807 </v>
   <v>      -0.00226408      -0.00149064       0.00017914 </v>
   <v>      -0.00126701      -0.00237974       0.00112872 </v>
   <v>       0.00056544      -0.00064457       0.00133634 </v>
   <v>       0.00188051      -0.00110444       0.00090050 </v>
   <v>      -0.00191862       0.00268736      -0.00234776 </v>
   <v>      -0.00209074      -0.00085061      -0.00047793 </v>
   <v>       0.00227396      -0.00023526       0.00073136 </v>
   <v>      -0.00107123      -0.00239426      -0.00263447 </v>
   <v>      -0.00186166       0.00137520       0.00188525 </v>
   <v>       0.00052082       0.00321409       0.00033247 </v>
   <v>       0.00232351       0.00036134      -0.00360428 </v>
   <v>       0.00028045      -0.00057296       0.00002557 </v>
   <v>       0.00139128       0.00072540      -0.00138811 </v>
   <v>      -0.00392877      -0.00613730      -0.00188083 </v>
   <v>      -0.00047295      -0.00146948       0.00185433 </v>
   <v>      -0.00030235      -0.00049122      -0.00369976 </v>
   <v>      -0.00319383       0.00089523      -0.00184186 </v>
   <v>       0.00172859       0.00030689      -0.00152896 </v>
   <v>       0.00143303      -0.00802363      -0.00313974 </v>
   <v>       0.00321417       0.00029777      -0.00457689 </v>
   <v>       0.00087218      -0.00130656      -0.00145686 </v>
   <v>      -0.00063087      -0.00033866       0.00011683 </v>
   <v>       0.00477268      -0.00143992      -0.00325060 </v>
   <v>       0.00130620       0.00073796       0.00359702 </v>
   <v>      -0.00137646       0.00483901      -0.00084774 </v>
   <v>      -0.00029261       0.00001926       0.00128427 </v>
   <v>      -0.00128405       0.00072115       0.00245455 </v>
   <v>      -0.00158287      -0.00039550       0.00231887 </v>
   <v>      -0.00115451       0.00616608       0.00513219 </v>
   <v>      -0.00069451       0.00096440      -0.00260886 </v>
   <v>       0.00021122       0.00252144       0.00087287 </v>
   <v>       0.00141048       0.00024492      -0.00295333 </v>
   <v>       0.00349572       0.00372102      -0.00249689 </v>
   <v>      -0.00034933      -0.00294551       0.00102876 </v>
   <v>      -0.00056008       0.00114730      -0.00263461 </v>
   <v>      -0.00077573      -0.00143719      -0.00345958 </v>
   <v>      -0.00072702       0.00057947       0.00206354 </v>
   <v>      -0.00071894      -0.00017258       0.00006449 </v>
   <v>       0.00281848      -0.00511128      -0.00185529 </v>
   <v>      -0.00037512       0.00051461       0.00054192 </v>
   <v>      -0.00033377       0.00244630      -0.00005373 </v>
   <v>       0.00041131       0.00057201      -0.00027119 </v>
   <v>      -0.00045627      -0.00260596      -0.00370228 </v>
   <v>      -0.00020769       0.00130446       0.00196776 </v>
   <v>       0.00226831      -0.00123539      -0.00220343 </v>
   <v>       0.00253990       0.00203047       0.00120472 </v>
   <v>       0.00174640      -0.00013433       0.00211060 </v>
   <v>       0.00137131      -0.00119744       0.00088150 </v>
   <v>      -0.00609799       0.00120971      -0.00144250 </v>
   <v>       0.00034271       0.00389849       0.00145832 </v>
   <v>       0.00309291       0.00109232       0.00586254 </v>
   <v>      -0.00026442      -0.00246069      -0.00356660 </v>
   <v>      -0.00082519      -0.00060522       0.00005647 </v>
   <v>      -0.00046091      -0.00039819       0.00007166 </v>
   <v>      -0.00122884      -0.00008189      -0.00391196 </v>
   <v>       0.00263449       0.00065814       0.00272461 </v>
   <v>      -0.00266411      -0.00124790      -0.00086922 </v>
   <v>      -0.00009931      -0.00403518      -0.00356025 </v>
   <v>       0.00250207       0.00381234       0.00423892 </v>
   <v>      -0.00200072       0.00022130       0.00040794 </v>
   <v>      -0.00206590       0.00010660      -0.00467149 </v>
   <v>      -0.00038419       0.00155880       0.00040246 </v>
   <v>       0.00012513      -0.00117908       0.00069444 </v>
   <v>      -0.00241084       0.00383626       0.00320501 </v>
   <v>      -0.00016193       0.00345975      -0.00090370 </v>
   <v>      -0.00293862      -0.00056372       0.00066503 </v>
   <v>      -0.00192796       0.00313643      -0.00094946 </v>
   <v>       0.00016659      -0.00158624       0.00029745 </v>
   <v>      -0.00092891       0.00108059      -0.00144267 </v>
   <v>      -0.00077310       0.00162845      -0.00158282 </v>
   <v>       0.00128686       0.00407434       0.00098999 </v>
   <v>      -0.00261616       0.00081975      -0.00000379 </v>
   <v>      -0.00172877      -0.00178572       0.00056845 </v>
   <v>      -0.00032350       0.00197564       0.00187521 </v>
   <v>      -0.00221761       0.00172475      -0.00245436 </v>
   <v>       0.00220802       0.00199492       0.00054826 </v>
   <v>      -0.00040932      -0.00079773       0.00469790 </v>
   <v>      -0.00221905       0.00183088       0.00267146 </v>
   <v>       0.00055100      -0.00167697       0.00128730 </v>
   <v>       0.00288541       0.00370185       0.00504240 </v>
   <v>      -0.00153932       0.00411281       0.00401312 </v>
   <v>      -0.00069250      -0.00008689      -0.00196846 </v>
   <v>       0.00237994      -0.00207448       0.00236189 </v>
   <v>       0.00537307      -0.00144394      -0.00071152 </v>
  </varray>
  <varray name="stress" >
   <v>      -0.04768631      -0.00551293      -0.00384505 </v>
   <v>      -0.00551294      -0.03053301       0.00040367 </v>
   <v>      -0.00384505       0.00040367      -0.25536008 </v>
  </varray>
  <energy>
   <i name="e_fr_energy">   -846.84510404 </i>
   <i name="e_wo_entrp">   -846.84510404 </i>
   <i name="e_0_energy">     -0.00000000 </i>
  </energy>
  <time name="totalsc"> 2924.07 2956.58</time>
  <eigenvalues>
   <array>
    <dimension dim="1">band</dimension>
    <dimension dim="2">kpoint</dimension>
    <dimension dim="3">spin</dimension>
    <field>eigene</field>
    <field>occ</field>
    <set>
     <set comment="spin 1">
      <set comment="kpoint 1">
       <r>  -24.2335    1.0000 </r>
       <r>  -24.2326    1.0000 </r>
       <r>  -24.2232    1.0000 </r>
       <r>  -24.2224    1.0000 </r>
       <r>  -24.2217    1.0000 </r>
       <r>  -24.2208    1.0000 </r>
       <r>  -21.6893    1.0000 </r>
       <r>  -21.6884    1.0000 </r>
       <r>  -21.6844    1.0000 </r>
       <r>  -21.6823    1.0000 </r>
       <r>  -21.6813    1.0000 </r>
       <r>  -21.6806    1.0000 </r>
       <r>  -21.5453    1.0000 </r>
       <r>  -21.5440    1.0000 </r>
       <r>  -21.4260    1.0000 </r>
       <r>  -21.2223    1.0000 </r>
       <r>  -21.2213    1.0000 </r>
       <r>  -20.9783    1.0000 </r>
       <r>  -20.1784    1.0000 </r>
       <r>  -20.1625    1.0000 </r>
       <r>  -20.0370    1.0000 </r>
       <r>  -20.0364    1.0000 </r>
       <r>  -19.6051    1.0000 </r>
       <r>  -19.6048    1.0000 </r>
       <r>  -19.2593    1.0000 </r>
       <r>  -18.9845    1.0000 </r>
       <r>  -18.9841    1.0000 </r>
       <r>  -18.5655    1.0000 </r>
       <r>  -18.5644    1.0000 </r>
       <r>  -18.2358    1.0000 </r>
       <r>  -18.2345    1.0000 </r>
       <r>  -18.0265    1.0000 </r>
       <r>  -17.8968    1.0000 </r>
       <r>  -17.8701    1.0000 </r>
       <r>  -17.8686    1.0000 </r>
       <r>  -17.8631    1.0000 </r>
       <r>  -17.4288    1.0000 </r>
       <r>  -17.3493    1.0000 </r>
       <r>  -17.3485    1.0000 </r>
       <r>  -17.2538    1.0000 </r>
       <r>  -17.1330    1.0000 </r>
       <r>  -17.1316    1.0000 </r>
       <r>  -16.2125    1.0000 </r>
       <r>  -16.2109    1.0000 </r>
       <r>  -15.8388    1.0000 </r>
       <r>  -15.8334    1.0000 </r>
       <r>  -15.8310    1.0000 </r>
       <r>  -15.8220    1.0000 </r>
       <r>  -15.3649    1.0000 </r>
       <r>  -15.3608    1.0000 </r>
       <r>  -15.2401    1.0000 </r>
       <r>  -15.0669    1.0000 </r>
       <r>  -15.0656    1.0000 </r>
       <r>  -14.9795    1.0000 </r>
       <r>  -14.9103    1.0000 </r>
       <r>  -14.8827    1.0000 </r>
       <r>  -14.8146    1.0000 </r>
       <r>  -14.8112    1.0000 </r>
       <r>  -14.2841    1.0000 </r>
       <r>  -14.2820    1.0000 </r>
       <r>  -14.1337    1.0000 </r>
       <r>  -13.7997    1.0000 </r>
       <r>  -13.7982    1.0000 </r>
       <r>  -13.6488    1.0000 </r>
       <r>  -13.6478    1.0000 </r>
       <r>  -13.5521    1.0000 </r>
       <r>  -12.8763    1.0000 </r>
       <r>  -12.8751    1.0000 </r>
       <r>  -12.8553    1.0000 </r>
       <r>  -12.5857    1.0000 </r>
       <r>  -12.5675    1.0000 </r>
       <r>  -12.5662    1.0000 </r>
       <r>  -12.3403    1.0000 </r>
       <r>  -12.3331    1.0000 </r>
       <r>  -12.3326    1.0000 </r>
       <r>  -12.0169    1.0000 </r>
       <r>  -11.9598    1.0000 </r>
       <r>  -11.9589    1.0000 </r>
       <r>  -11.8633    1.0000 </r>
       <r>  -11.7445    1.0000 </r>
       <r>  -11.7439    1.0000 </r>
       <r>  -11.5114    1.0000 </r>
       <r>  -11.5065    1.0000 </r>
       <r>  -11.5044    1.0000 </r>
       <r>  -11.3801    1.0000 </r>
       <r>  -11.3780    1.0000 </r>
       <r>  -11.3166    1.0000 </r>
       <r>  -11.0663    1.0000 </r>
       <r>  -11.0643    1.0000 </r>
       <r>  -10.7264    1.0000 </r>
       <r>  -10.7255    1.0000 </r>
       <r>  -10.6606    1.0000 </r>
       <r>  -10.6570    1.0000 </r>
       <r>  -10.6364    1.0000 </r>
       <r>  -10.6063    1.0000 </r>
       <r>  -10.4538    1.0000 </r>
       <r>  -10.4297    1.0000 </r>
       <r>  -10.4064    1.0000 </r>
       <r>  -10.3055    1.0000 </r>
       <r>  -10.3044    1.0000 </r>
       <r>  -10.1294    1.0000 </r>
       <r>  -10.1265    1.0000 </r>
       <r>   -9.9867    1.0000 </r>
       <r>   -9.9429    1.0000 </r>
       <r>   -9.9409    1.0000 </r>
       <r>   -9.8628    1.0000 </r>
       <r>   -9.8619    1.0000 </r>
       <r>   -9.8406    1.0000 </r>
       <r>   -9.7931    1.0000 </r>
       <r>   -9.7726    1.0000 </r>
       <r>   -9.7689    1.0000 </r>
       <r>   -9.4913    1.0000 </r>
       <r>   -9.4887    1.0000 </r>
       <r>   -9.4339    1.0000 </r>
       <r>   -9.4294    1.0000 </r>
       <r>   -9.3423    1.0000 </r>
       <r>   -9.3311    1.0000 </r>
       <r>   -9.2628    1.0000 </r>
       <r>   -9.2575    1.0000 </r>
       <r>   -9.2494    1.0000 </r>
       <r>   -9.1374    1.0000 </r>
       <r>   -9.1346    1.0000 </r>
       <r>   -9.1290    1.0000 </r>
       <r>   -9.0825    1.0000 </r>
       <r>   -8.9625    1.0000 </r>
       <r>   -8.9578    1.0000 </r>
       <r>   -8.8897    1.0000 </r>
       <r>   -8.8888    1.0000 </r>
       <r>   -8.8246    1.0000 </r>
       <r>   -8.8227    1.0000 </r>
       <r>   -8.7869    1.0000 </r>
       <r>   -8.7741    1.0000 </r>
       <r>   -8.6363    1.0000 </r>
       <r>   -8.6315    1.0000 </r>
       <r>   -8.6049    1.0000 </r>
       <r>   -8.5501    1.0000 </r>
       <r>   -8.4188    1.0000 </r>
       <r>   -8.4109    1.0000 </r>
       <r>   -8.3509    1.0000 </r>
       <r>   -8.3369    1.0000 </r>
       <r>   -8.3344    1.0000 </r>
       <r>   -8.1592    1.0000 </r>
       <r>   -8.1392    1.0000 </r>
       <r>   -8.1380    1.0000 </r>
       <r>   -7.8529    1.0000 </r>
       <r>   -7.8522    1.0000 </r>
       <r>   -7.7757    1.0000 </r>
       <r>   -7.2979    1.0000 </r>
       <r>   -7.2951    1.0000 </r>
       <r>   -7.2617    1.0000 </r>
       <r>   -7.2221    1.0000 </r>
       <r>   -7.1716    1.0000 </r>
       <r>   -7.1701    1.0000 </r>
       <r>   -6.9530    1.0000 </r>
       <r>   -6.9482    1.0000 </r>
       <r>   -6.9006    1.0000 </r>
       <r>   -6.8001    1.0000 </r>
       <r>   -6.6975    1.0000 </r>
       <r>   -6.6816    1.0000 </r>
       <r>   -6.6798    1.0000 </r>
       <r>   -6.6572    1.0000 </r>
       <r>   -6.5124    1.0000 </r>
       <r>   -6.5093    1.0000 </r>
       <r>   -6.4789    1.0000 </r>
       <r>   -6.4693    1.0000 </r>
       <r>   -6.4670    1.0000 </r>
       <r>   -6.2947    1.0000 </r>
       <r>   -6.2909    1.0000 </r>
       <r>   -5.9434    1.0000 </r>
       <r>   -5.9419    1.0000 </r>
       <r>   -5.7354    1.0000 </r>
       <r>   -5.7347    1.0000 </r>
       <r>   -5.5526    1.0000 </r>
       <r>   -5.4395    1.0000 </r>
       <r>   -5.3957    1.0000 </r>
       <r>   -5.2677    1.0000 </r>
       <r>   -5.2662    1.0000 </r>
       <r>   -5.1806    1.0000 </r>
       <r>   -5.1683    1.0000 </r>
       <r>   -5.1678    1.0000 </r>
       <r>   -5.1372    1.0000 </r>
       <r>   -5.1341    1.0000 </r>
       <r>   -5.0745    1.0000 </r>
       <r>   -1.9826    0.0000 </r>
       <r>   -1.9776    0.0000 </r>
       <r>   -1.9750    0.0000 </r>
       <r>   -1.9147    0.0000 </r>
       <r>   -1.9119    0.0000 </r>
       <r>   -1.7723    0.0000 </r>
       <r>   -1.7028    0.0000 </r>
       <r>   -1.6394    0.0000 </r>
       <r>   -1.6210    0.0000 </r>
       <r>   -1.6142    0.0000 </r>
       <r>   -1.4534    0.0000 </r>
       <r>   -1.4532    0.0000 </r>
       <r>   -1.4180    0.0000 </r>
       <r>   -1.4052    0.0000 </r>
       <r>   -1.4029    0.0000 </r>
       <r>   -1.0644    0.0000 </r>
       <r>   -0.6316    0.0000 </r>
       <r>   -0.6272    0.0000 </r>
       <r>   -0.6138    0.0000 </r>
       <r>   -0.1997    0.0000 </r>
       <r>   -0.1954    0.0000 </r>
       <r>   -0.1919    0.0000 </r>
       <r>   -0.0210    0.0000 </r>
       <r>    0.0658    0.0000 </r>
       <r>    0.0682    0.0000 </r>
       <r>    0.1312    0.0000 </r>
       <r>    0.1337    0.0000 </r>
       <r>    0.1549    0.0000 </r>
       <r>    0.1566    0.0000 </r>
       <r>    0.2310    0.0000 </r>
       <r>    0.3741    0.0000 </r>
       <r>    0.4864    0.0000 </r>
       <r>    0.5620    0.0000 </r>
       <r>    0.6880    0.0000 </r>
       <r>    0.7011    0.0000 </r>
       <r>    0.7144    0.0000 </r>
       <r>    0.7185    0.0000 </r>
       <r>    0.8136    0.0000 </r>
       <r>    0.8140    0.0000 </r>
       <r>    0.8271    0.0000 </r>
       <r>    0.8285    0.0000 </r>
       <r>    0.8836    0.0000 </r>
       <r>    0.9699    0.0000 </r>
       <r>    1.0166    0.0000 </r>
       <r>    1.0184    0.0000 </r>
       <r>    1.0404    0.0000 </r>
       <r>    1.0406    0.0000 </r>
       <r>    1.0743    0.0000 </r>
       <r>    1.1997    0.0000 </r>
       <r>    1.2100    0.0000 </r>
       <r>    1.2143    0.0000 </r>
       <r>    1.2499    0.0000 </r>
       <r>    1.2911    0.0000 </r>
       <r>    1.3024    0.0000 </r>
       <r>    1.3085    0.0000 </r>
       <r>    1.4350    0.0000 </r>
       <r>    1.4472    0.0000 </r>
       <r>    1.4511    0.0000 </r>
       <r>    1.4650    0.0000 </r>
       <r>    1.4671    0.0000 </r>
       <r>    1.4688    0.0000 </r>
       <r>    1.4729    0.0000 </r>
       <r>    1.5284    0.0000 </r>
       <r>    1.5299    0.0000 </r>
       <r>    1.6217    0.0000 </r>
       <r>    1.6238    0.0000 </r>
       <r>    1.6341    0.0000 </r>
       <r>    1.6383    0.0000 </r>
       <r>    1.6425    0.0000 </r>
       <r>    1.6823    0.0000 </r>
       <r>    1.6870    0.0000 </r>
       <r>    1.7660    0.0000 </r>
       <r>    1.7679    0.0000 </r>
      </set>
      <set comment="kpoint 2">
       <r>  -24.2335    1.0000 </r>
       <r>  -24.2326    1.0000 </r>
       <r>  -24.2232    1.0000 </r>
       <r>  -24.2224    1.0000 </r>
       <r>  -24.2217    1.0000 </r>
       <r>  -24.2208    1.0000 </r>
       <r>  -21.6893    1.0000 </r>
       <r>  -21.6884    1.0000 </r>
       <r>  -21.6844    1.0000 </r>
       <r>  -21.6823    1.0000 </r>
       <r>  -21.6813    1.0000 </r>
       <r>  -21.6806    1.0000 </r>
       <r>  -21.5453    1.0000 </r>
       <r>  -21.5439    1.0000 </r>
       <r>  -21.4263    1.0000 </r>
       <r>  -21.2223    1.0000 </r>
       <r>  -21.2207    1.0000 </r>
       <r>  -20.9787    1.0000 </r>
       <r>  -20.1784    1.0000 </r>
       <r>  -20.1626    1.0000 </r>
       <r>  -20.0370    1.0000 </r>
       <r>  -20.0358    1.0000 </r>
       <r>  -19.6061    1.0000 </r>
       <r>  -19.6047    1.0000 </r>
       <r>  -19.2584    1.0000 </r>
       <r>  -18.9848    1.0000 </r>
       <r>  -18.9844    1.0000 </r>
       <r>  -18.5650    1.0000 </r>
       <r>  -18.5640    1.0000 </r>
       <r>  -18.2364    1.0000 </r>
       <r>  -18.2349    1.0000 </r>
       <r>  -18.0262    1.0000 </r>
       <r>  -17.8969    1.0000 </r>
       <r>  -17.8701    1.0000 </r>
       <r>  -17.8686    1.0000 </r>
       <r>  -17.8631    1.0000 </r>
       <r>  -17.4289    1.0000 </r>
       <r>  -17.3492    1.0000 </r>
       <r>  -17.3482    1.0000 </r>
       <r>  -17.2544    1.0000 </r>
       <r>  -17.1328    1.0000 </r>
       <r>  -17.1314    1.0000 </r>
       <r>  -16.2124    1.0000 </r>
       <r>  -16.2106    1.0000 </r>
       <r>  -15.8388    1.0000 </r>
       <r>  -15.8341    1.0000 </r>
       <r>  -15.8312    1.0000 </r>
       <r>  -15.8218    1.0000 </r>
       <r>  -15.3650    1.0000 </r>
       <r>  -15.3609    1.0000 </r>
       <r>  -15.2406    1.0000 </r>
       <r>  -15.0668    1.0000 </r>
       <r>  -15.0651    1.0000 </r>
       <r>  -14.9795    1.0000 </r>
       <r>  -14.9102    1.0000 </r>
       <r>  -14.8820    1.0000 </r>
       <r>  -14.8145    1.0000 </r>
       <r>  -14.8110    1.0000 </r>
       <r>  -14.2847    1.0000 </r>
       <r>  -14.2824    1.0000 </r>
       <r>  -14.1328    1.0000 </r>
       <r>  -13.8007    1.0000 </r>
       <r>  -13.7992    1.0000 </r>
       <r>  -13.6481    1.0000 </r>
       <r>  -13.6471    1.0000 </r>
       <r>  -13.5521    1.0000 </r>
       <r>  -12.8763    1.0000 </r>
       <r>  -12.8750    1.0000 </r>
       <r>  -12.8553    1.0000 </r>
       <r>  -12.5854    1.0000 </r>
       <r>  -12.5672    1.0000 </r>
       <r>  -12.5659    1.0000 </r>
       <r>  -12.3406    1.0000 </r>
       <r>  -12.3334    1.0000 </r>
       <r>  -12.3327    1.0000 </r>
       <r>  -12.0169    1.0000 </r>
       <r>  -11.9599    1.0000 </r>
       <r>  -11.9590    1.0000 </r>
       <r>  -11.8631    1.0000 </r>
       <r>  -11.7445    1.0000 </r>
       <r>  -11.7441    1.0000 </r>
       <r>  -11.5114    1.0000 </r>
       <r>  -11.5065    1.0000 </r>
       <r>  -11.5044    1.0000 </r>
       <r>  -11.3800    1.0000 </r>
       <r>  -11.3779    1.0000 </r>
       <r>  -11.3168    1.0000 </r>
       <r>  -11.0659    1.0000 </r>
       <r>  -11.0643    1.0000 </r>
       <r>  -10.7278    1.0000 </r>
       <r>  -10.7263    1.0000 </r>
       <r>  -10.6596    1.0000 </r>
       <r>  -10.6562    1.0000 </r>
       <r>  -10.6363    1.0000 </r>
       <r>  -10.6063    1.0000 </r>
       <r>  -10.4542    1.0000 </r>
       <r>  -10.4296    1.0000 </r>
       <r>  -10.4061    1.0000 </r>
       <r>  -10.3055    1.0000 </r>
       <r>  -10.3035    1.0000 </r>
       <r>  -10.1295    1.0000 </r>
       <r>  -10.1264    1.0000 </r>
       <r>   -9.9875    1.0000 </r>
       <r>   -9.9431    1.0000 </r>
       <r>   -9.9415    1.0000 </r>
       <r>   -9.8622    1.0000 </r>
       <r>   -9.8617    1.0000 </r>
       <r>   -9.8404    1.0000 </r>
       <r>   -9.7932    1.0000 </r>
       <r>   -9.7726    1.0000 </r>
       <r>   -9.7689    1.0000 </r>
       <r>   -9.4913    1.0000 </r>
       <r>   -9.4887    1.0000 </r>
       <r>   -9.4339    1.0000 </r>
       <r>   -9.4294    1.0000 </r>
       <r>   -9.3424    1.0000 </r>
       <r>   -9.3311    1.0000 </r>
       <r>   -9.2630    1.0000 </r>
       <r>   -9.2575    1.0000 </r>
       <r>   -9.2495    1.0000 </r>
[...]
       <r>   -19.6168     5.0710    45.7841 </r>
       <r>   -19.5213    15.6865    48.0000 </r>
       <r>   -19.4259     0.0000    48.0000 </r>
       <r>   -19.3304     0.0000    48.0000 </r>
       <r>   -19.2349     3.9907    48.3809 </r>
       <r>   -19.1395     5.2517    49.0014 </r>
       <r>   -19.0440    21.0313    51.1087 </r>
       <r>   -18.9486    25.8198    54.0000 </r>
       <r>   -18.8531     0.0000    54.0000 </r>
       <r>   -18.7577     0.0000    54.0000 </r>
       <r>   -18.6622     0.0000    54.0000 </r>
       <r>   -18.5667     1.8337    54.1750 </r>
       <r>   -18.4713    19.1185    56.5265 </r>
       <r>   -18.3758    21.2253    58.8933 </r>
       <r>   -18.2804    16.8442    60.6079 </r>
       <r>   -18.1849    11.8594    62.0000 </r>
       <r>   -18.0895     0.0000    62.0000 </r>
       <r>   -17.9940     7.8596    62.7503 </r>
       <r>   -17.8985    29.1258    65.7482 </r>
       <r>   -17.8031    62.8547    72.0000 </r>
       <r>   -17.7076     0.0000    72.0000 </r>
       <r>   -17.6122     0.0000    72.0000 </r>
       <r>   -17.5167     0.0000    72.0000 </r>
       <r>   -17.4213     7.9019    72.7543 </r>
       <r>   -17.3258    43.4932    77.2869 </r>
       <r>   -17.2303    20.9324    79.5990 </r>
       <r>   -17.1349    20.8275    81.7224 </r>
       <r>   -17.0394    17.1058    84.0000 </r>
       <r>   -16.9440     0.0000    84.0000 </r>
       <r>   -16.8485     0.0000    84.0000 </r>
       <r>   -16.7531     0.0000    84.0000 </r>
       <r>   -16.6576     0.0000    84.0000 </r>
       <r>   -16.5621     0.0000    84.0000 </r>
       <r>   -16.4667     0.0000    84.0000 </r>
       <r>   -16.3712     0.0000    84.0000 </r>
       <r>   -16.2758     0.0000    84.0000 </r>
       <r>   -16.1803    26.5839    86.5376 </r>
       <r>   -16.0848     8.8733    87.5139 </r>
       <r>   -15.9894     8.1442    88.4446 </r>
       <r>   -15.8939     7.4376    89.3441 </r>
       <r>   -15.7985    68.7814    95.9992 </r>
       <r>   -15.7030     0.0000    96.0000 </r>
       <r>   -15.6076     0.0000    96.0000 </r>
       <r>   -15.5121     0.0000    96.0000 </r>
       <r>   -15.4166     0.0001    96.0000 </r>
       <r>   -15.3212    46.3153   100.4211 </r>
       <r>   -15.2257    12.8636   101.9967 </r>
       <r>   -15.1303     0.0000   102.0000 </r>
       <r>   -15.0348    27.4593   104.6212 </r>
       <r>   -14.9394    32.8158   108.0000 </r>
       <r>   -14.8439    41.7672   111.9870 </r>
       <r>   -14.7484    28.3753   114.7086 </r>
       <r>   -14.6530     6.2076   115.3926 </r>
       <r>   -14.5575     5.8849   116.1285 </r>
       <r>   -14.4621     7.9455   116.9589 </r>
       <r>   -14.3666     3.6724   117.3841 </r>
       <r>   -14.2712     9.7416   118.3636 </r>
       <r>   -14.1757    13.4591   119.8519 </r>
       <r>   -14.0802     6.5254   120.6229 </r>
       <r>   -13.9848    13.2118   121.9949 </r>
       <r>   -13.8893    25.4213   124.4275 </r>
       <r>   -13.7939    13.5707   125.9290 </r>
       <r>   -13.6984     0.0000   126.0000 </r>
       <r>   -13.6030    16.6304   127.5875 </r>
       <r>   -13.5075    36.2706   132.0000 </r>
       <r>   -13.4120     0.0000   132.0000 </r>
       <r>   -13.3166     0.0000   132.0000 </r>
       <r>   -13.2211     0.0000   132.0000 </r>
       <r>   -13.1257     0.0000   132.0000 </r>
       <r>   -13.0302     0.0000   132.0000 </r>
       <r>   -12.9348     0.0000   132.0000 </r>
       <r>   -12.8393    62.6942   137.9846 </r>
       <r>   -12.7438     0.0000   138.0000 </r>
       <r>   -12.6484     0.0000   138.0000 </r>
       <r>   -12.5529    24.9015   140.3770 </r>
       <r>   -12.4575    30.4307   143.9065 </r>
       <r>   -12.3620    33.1862   147.1683 </r>
       <r>   -12.2665    21.6220   150.0000 </r>
       <r>   -12.1711     0.0000   150.0000 </r>
       <r>   -12.0756     0.0000   150.0000 </r>
       <r>   -11.9802    32.0084   153.0554 </r>
       <r>   -11.8847    24.7528   156.0002 </r>
       <r>   -11.7893    25.7332   158.4567 </r>
       <r>   -11.6938    30.7179   162.0000 </r>
       <r>   -11.5983     0.0000   162.0000 </r>
       <r>   -11.5029    47.2717   166.5124 </r>
       <r>   -11.4074     0.0002   168.0000 </r>
       <r>   -11.3120    61.9837   173.9168 </r>
       <r>   -11.2165     0.0000   174.0000 </r>
       <r>   -11.1211     0.0000   174.0000 </r>
       <r>   -11.0256    27.5977   176.6344 </r>
       <r>   -10.9301    10.8569   177.7704 </r>
       <r>   -10.8347    12.2330   179.1680 </r>
       <r>   -10.7392    23.2568   181.4540 </r>
       <r>   -10.6438     8.4432   182.8060 </r>
       <r>   -10.5483    51.9663   190.0642 </r>
       <r>   -10.4529    15.3361   191.8984 </r>
       <r>   -10.3574    25.8549   194.4682 </r>
       <r>   -10.2619    36.1921   198.5571 </r>
       <r>   -10.1665    17.1620   200.3386 </r>
       <r>   -10.0710    37.6474   204.1609 </r>
       <r>    -9.9756    33.1462   208.0361 </r>
       <r>    -9.8801    16.0788   210.0028 </r>
       <r>    -9.7847    87.1005   218.3172 </r>
       <r>    -9.6892     5.1679   222.0000 </r>
       <r>    -9.5937     0.0000   222.0000 </r>
       <r>    -9.4983     9.2578   222.8837 </r>
       <r>    -9.4028    55.4749   229.9982 </r>
       <r>    -9.3074    41.9085   234.0005 </r>
       <r>    -9.2119    62.8465   240.0000 </r>
       <r>    -9.1164    39.4390   243.7647 </r>
       <r>    -9.0210    23.8999   248.2814 </r>
       <r>    -8.9255    31.7698   252.0000 </r>
       <r>    -8.8301    62.2112   257.9385 </r>
       <r>    -8.7346    41.9034   264.0000 </r>
       <r>    -8.6392     4.3629   264.4165 </r>
       <r>    -8.5437    33.7301   270.2945 </r>
       <r>    -8.4482    20.7465   272.5809 </r>
       <r>    -8.3528    47.1063   277.6641 </r>
       <r>    -8.2573    22.5377   282.0000 </r>
       <r>    -8.1619     2.1054   282.2010 </r>
       <r>    -8.0664    47.4590   288.0000 </r>
       <r>    -7.9710     0.0000   288.0000 </r>
       <r>    -7.8755     0.8858   288.0846 </r>
       <r>    -7.7800    46.4602   293.6708 </r>
       <r>    -7.6846     0.0000   294.0000 </r>
       <r>    -7.5891     0.0000   294.0000 </r>
       <r>    -7.4937     0.0000   294.0000 </r>
       <r>    -7.3982     0.0000   294.0000 </r>
       <r>    -7.3028    10.1238   294.9664 </r>
       <r>    -7.2073    38.5325   301.1159 </r>
       <r>    -7.1118    39.7836   306.0000 </r>
       <r>    -7.0164     0.0000   306.0000 </r>
       <r>    -6.9209    53.6125   311.1177 </r>
       <r>    -6.8255     3.8243   312.0000 </r>
       <r>    -6.7300    29.6769   314.8329 </r>
       <r>    -6.6346    59.7529   321.0714 </r>
       <r>    -6.5391    13.7814   323.3155 </r>
       <r>    -6.4436    45.7855   329.4748 </r>
       <r>    -6.3482    25.9134   333.0404 </r>
       <r>    -6.2527    23.0098   336.0000 </r>
       <r>    -6.1573     0.0000   336.0000 </r>
       <r>    -6.0618     0.0000   336.0000 </r>
       <r>    -5.9663     0.0016   336.0001 </r>
       <r>    -5.8709    31.1801   338.9765 </r>
       <r>    -5.7754    28.5969   341.9332 </r>
       <r>    -5.6800    13.9521   344.0000 </r>
       <r>    -5.5845     0.0000   344.0000 </r>
       <r>    -5.4891    21.1472   346.0187 </r>
       <r>    -5.3936    18.6174   348.2128 </r>
       <r>    -5.2981    24.7408   350.9625 </r>
       <r>    -5.2027    28.5168   354.0563 </r>
       <r>    -5.1072    81.5178   363.1194 </r>
       <r>    -5.0118    20.8789   366.0000 </r>
       <r>    -4.9163     0.0000   366.0000 </r>
       <r>    -4.8209     0.0000   366.0000 </r>
       <r>    -4.7254     0.0000   366.0000 </r>
       <r>    -4.6299     0.0000   366.0000 </r>
       <r>    -4.5345     0.0000   366.0000 </r>
       <r>    -4.4390     0.0000   366.0000 </r>
       <r>    -4.3436     0.0000   366.0000 </r>
       <r>    -4.2481     0.0000   366.0000 </r>
       <r>    -4.1527     0.0000   366.0000 </r>
       <r>    -4.0572     0.0000   366.0000 </r>
       <r>    -3.9617     0.0000   366.0000 </r>
       <r>    -3.8663     0.0000   366.0000 </r>
       <r>    -3.7708     0.0000   366.0000 </r>
       <r>    -3.6754     0.0000   366.0000 </r>
       <r>    -3.5799     0.0000   366.0000 </r>
       <r>    -3.4845     0.0000   366.0000 </r>
       <r>    -3.3890     0.0000   366.0000 </r>
       <r>    -3.2935     0.0000   366.0000 </r>
       <r>    -3.1981     0.0000   366.0000 </r>
       <r>    -3.1026     0.0000   366.0000 </r>
       <r>    -3.0072     0.0000   366.0000 </r>
       <r>    -2.9117     0.0000   366.0000 </r>
       <r>    -2.8162     0.0000   366.0000 </r>
       <r>    -2.7208     0.0000   366.0000 </r>
       <r>    -2.6253     0.0000   366.0000 </r>
       <r>    -2.5299     0.0000   366.0000 </r>
       <r>    -2.4344     0.0000   366.0000 </r>
       <r>    -2.3390     0.0000   366.0000 </r>
       <r>    -2.2435     0.0000   366.0000 </r>
       <r>    -2.1480     0.0000   366.0000 </r>
       <r>    -2.0526     0.0002   366.0000 </r>
       <r>    -1.9571    59.1722   371.6485 </r>
       <r>    -1.8617    33.9446   375.2403 </r>
       <r>    -1.7662    19.6869   377.8793 </r>
       <r>    -1.6708    28.5787   380.7281 </r>
       <r>    -1.5753    37.5497   385.2529 </r>
       <r>    -1.4798    17.6821   387.2884 </r>
       <r>    -1.3844    88.2256   395.9893 </r>
       <r>    -1.2889     0.0000   396.0000 </r>
       <r>    -1.1935     0.0000   396.0000 </r>
       <r>    -1.0980     0.0000   396.0000 </r>
       <r>    -1.0026     8.4751   396.8090 </r>
       <r>    -0.9071    11.5204   398.0332 </r>
       <r>    -0.8116     9.6283   399.1194 </r>
       <r>    -0.7162     3.8470   399.5673 </r>
       <r>    -0.6207     7.3893   400.3388 </r>
       <r>    -0.5253    17.8623   402.4396 </r>
       <r>    -0.4298     3.7562   402.8586 </r>
       <r>    -0.3344    14.6693   404.3337 </r>
       <r>    -0.2389    18.4528   406.6286 </r>
       <r>    -0.1434    22.1799   409.0846 </r>
       <r>    -0.0480    17.5410   411.3083 </r>
       <r>     0.0475    17.2717   413.1494 </r>
       <r>     0.1429    62.7507   419.9951 </r>
       <r>     0.2384    25.9223   422.6771 </r>
       <r>     0.3338    20.3934   425.0152 </r>
       <r>     0.4293    16.9076   427.5147 </r>
       <r>     0.5248    26.3771   430.4186 </r>
       <r>     0.6202    25.1697   433.4706 </r>
       <r>     0.7157    42.5938   437.6330 </r>
       <r>     0.8111    46.9902   443.4867 </r>
       <r>     0.9066    49.6037   449.3727 </r>
       <r>     1.0021    57.0470   455.5804 </r>
       <r>     1.0975    34.7565   459.2523 </r>
       <r>     1.1930    38.1978   464.1464 </r>
       <r>     1.2884    47.9118   469.7746 </r>
       <r>     1.3839    65.1098   478.1871 </r>
       <r>     1.4793    78.5152   486.7633 </r>
       <r>     1.5748    54.7681   492.6627 </r>
       <r>     1.6703    78.6147   501.3068 </r>
       <r>     1.7657    84.4644   510.6999 </r>
       <r>     1.8612     4.5332   512.0000 </r>
       <r>     1.9566     0.0000   512.0000 </r>
       <r>     2.0521     0.0000   512.0000 </r>
       <r>     2.1475     0.0000   512.0000 </r>
       <r>     2.2430     0.0000   512.0000 </r>
       <r>     2.3385     0.0000   512.0000 </r>
       <r>     2.4339     0.0000   512.0000 </r>
       <r>     2.5294     0.0000   512.0000 </r>
       <r>     2.6248     0.0000   512.0000 </r>
       <r>     2.7203     0.0000   512.0000 </r>
       <r>     2.8157     0.0000   512.0000 </r>
       <r>     2.9112     0.0000   512.0000 </r>
       <r>     3.0067     0.0000   512.0000 </r>
       <r>     3.1021     0.0000   512.0000 </r>
      </set>
     </set>
    </array>
   </total>
  </dos>
 </calculation>
 <structure name="finalpos" >
  <crystal>
   <varray name="basis" >
    <v>      23.07871523       0.00744505       0.00000000 </v>
    <v>     -11.53285585      19.99385994       0.00000000 </v>
    <v>      -0.00000000       0.00000000      20.00000000 </v>
   </varray>
   <i name="volume">   9230.36925010 </i>
   <varray name="rec_basis" >
    <v>       0.04332191       0.02498894       0.00000000 </v>
    <v>      -0.00001613       0.05000605      -0.00000000 </v>
    <v>       0.00000000       0.00000000       0.05000000 </v>
   </varray>
  </crystal>
  <varray name="positions" >
   <v>       0.53199424       0.47374432       0.47021890 </v>
   <v>       0.60078753       0.40490647       0.49702160 </v>
   <v>       0.53146019       0.36824021       0.48711341 </v>
   <v>       0.49767572       0.40324851       0.47403209 </v>
   <v>       0.47011734       0.24637768       0.44289880 </v>
   <v>       0.50272286       0.29491812       0.49348275 </v>
   <v>       0.43551733       0.25721904       0.38483256 </v>
   <v>       0.81045567       0.53737636       0.44460561 </v>
   <v>       0.71030433       0.50373903       0.49809468 </v>
   <v>       0.85570023       0.57288898       0.38670004 </v>
   <v>       0.60248065       0.50830150       0.47496310 </v>
   <v>       0.63673510       0.47437416       0.48961081 </v>
   <v>       0.51950743       0.27155557       0.55106841 </v>
   <v>       0.78650938       0.48607449       0.55185832 </v>
   <v>       0.42537584       0.92016146       0.46921489 </v>
   <v>       0.53327664       0.03083240       0.46763115 </v>
   <v>       0.60229676       0.16846348       0.49415177 </v>
   <v>       0.63888753       0.13567266       0.48424422 </v>
   <v>       0.97609420       0.47499241       0.46784771 </v>
   <v>       0.83844639       0.40551605       0.49423048 </v>
   <v>       0.87101966       0.47506272       0.48611473 </v>
   <v>       0.93987628       0.50919586       0.47344492 </v>
   <v>       0.50323300       0.17904596       0.49559592 </v>
   <v>       0.82645282       0.50374669       0.49407235 </v>
   <v>       0.26805420       0.79098972       0.43601804 </v>
   <v>       0.27912227       0.83621098       0.37770085 </v>
   <v>       0.49881715       0.06689463       0.47221507 </v>
   <v>       0.53281299       0.13503536       0.48675405 </v>
   <v>       0.08692776       0.58312238       0.46905186 </v>
   <v>       0.87210663       0.36981834       0.48529819 </v>
   <v>       0.49594166       0.95618696       0.46649181 </v>
   <v>       0.39004113       0.85104761       0.48009747 </v>
   <v>       0.42639095       0.81783371       0.48865015 </v>
   <v>       0.60379656       0.06689528       0.47130362 </v>
   <v>       0.05075007       0.51251093       0.46669339 </v>
   <v>       0.08686732       0.47809528       0.47059055 </v>
   <v>       0.15601539       0.51202018       0.48119919 </v>
   <v>       0.18914685       0.58162982       0.48871598 </v>
   <v>       0.76064123       0.19638428       0.43975536 </v>
   <v>       0.71226992       0.18003607       0.49062998 </v>
   <v>       0.82828522       0.29614032       0.49326393 </v>
   <v>       0.74951961       0.15154085       0.38109086 </v>
   <v>       0.31662455       0.80680764       0.48653835 </v>
   <v>       0.20004804       0.69119811       0.48939438 </v>
   <v>       0.49599753       0.85136077       0.48242669 </v>
   <v>       0.53028248       0.91993512       0.47007632 </v>
   <v>       0.15551135       0.61755372       0.48152513 </v>
   <v>       0.94020912       0.40440429       0.47056738 </v>
   <v>       0.73594006       0.21946998       0.54863568 </v>
   <v>       0.29315159       0.76707286       0.54435833 </v>
   <v>       0.49447755       0.51091213       0.46859377 </v>
   <v>       0.52879072       0.58145293       0.47128989 </v>
   <v>       0.49480566       0.61670141       0.48167426 </v>
   <v>       0.42522378       0.58028415       0.48964012 </v>
   <v>       0.55703307       0.73875525       0.43785520 </v>
   <v>       0.52387459       0.69010016       0.48819776 </v>
   <v>       0.52507739       0.80682749       0.49091648 </v>
   <v>       0.59119559       0.72745420       0.37966005 </v>
   <v>       0.21568830       0.44926600       0.43843156 </v>
   <v>       0.20021364       0.48285450       0.48834333 </v>
   <v>       0.31571221       0.48157712       0.49158577 </v>
   <v>       0.17027881       0.41468184       0.38035875 </v>
   <v>       0.38935348       0.51066974       0.48339817 </v>
   <v>       0.42388872       0.47646196       0.47167122 </v>
   <v>       0.50726794       0.71349000       0.54585397 </v>
   <v>       0.24019850       0.49987090       0.54602314 </v>
   <v>       0.62774513       0.37863845       0.50889796 </v>
   <v>       0.44343705       0.37485386       0.46961808 </v>
   <v>       0.46278971       0.30942487       0.36777109 </v>
   <v>       0.43040410       0.22373405       0.34360538 </v>
   <v>       0.38509464       0.24642867       0.39955603 </v>
   <v>       0.89568868       0.62282919       0.40216474 </v>
   <v>       0.63141873       0.56245593       0.47002149 </v>
   <v>       0.53540647       0.30220328       0.59640379 </v>
   <v>       0.39716945       0.94631778       0.46590066 </v>
   <v>       0.62860679       0.22163414       0.50612153 </v>
   <v>       0.78525860       0.37824146       0.50613489 </v>
   <v>       0.96575339       0.56355735       0.47097500 </v>
   <v>       0.88017398       0.54557829       0.36831045 </v>
   <v>       0.82731741       0.57917081       0.34622802 </v>
   <v>       0.33123992       0.86049287       0.36040379 </v>
   <v>       0.26893909       0.87630743       0.39222859 </v>
   <v>       0.44464459       0.04177846       0.46738298 </v>
   <v>       0.06160555       0.61200917       0.46408934 </v>
   <v>       0.70557495       0.20426747       0.59416412 </v>
   <v>       0.80126421       0.46916824       0.59649503 </v>
   <v>       0.39976463       0.76431475       0.49897937 </v>
   <v>       0.63217846       0.04099927       0.46694941 </v>
   <v>       0.06076434       0.42371690       0.46853770 </v>
   <v>       0.24266017       0.60870166       0.49910466 </v>
   <v>       0.69707646       0.12630357       0.36472750 </v>
   <v>       0.78234403       0.18039400       0.33965784 </v>
   <v>       0.76109667       0.11220694       0.39485362 </v>
   <v>       0.24526489       0.80787211       0.33671764 </v>
   <v>       0.58453890       0.94521113       0.46627374 </v>
   <v>       0.96542717       0.37558795       0.46405147 </v>
   <v>       0.32396234       0.78174839       0.58958814 </v>
   <v>       0.58313568       0.60974152       0.46831858 </v>
   <v>       0.39814993       0.60681960       0.49969639 </v>
   <v>       0.56291652       0.67547466       0.36201577 </v>
   <v>       0.59738267       0.76169888       0.33880790 </v>
   <v>       0.64111673       0.73677124       0.39443742 </v>
   <v>       0.14640233       0.44272931       0.36245012 </v>
   <v>       0.19840432       0.40835768       0.33965296 </v>
   <v>       0.12986174       0.36480283       0.39539331 </v>
   <v>       0.39509628       0.42218762       0.46805950 </v>
   <v>       0.49069338       0.68250751       0.59094927 </v>
   <v>       0.22580313       0.51674672       0.59092449 </v>
   <v>       0.47168333       0.18868843       0.44424068 </v>
   <v>       0.75133496       0.53603962       0.44689389 </v>
   <v>       0.52027635       0.21419724       0.55301713 </v>
   <v>       0.72853969       0.48561656       0.55479100 </v>
   <v>       0.21007196       0.73209190       0.43771425 </v>
   <v>       0.81845265       0.25545150       0.44142356 </v>
   <v>       0.79336135       0.27747612       0.55081715 </v>
   <v>       0.23538999       0.70938662       0.54669856 </v>
   <v>       0.55635891       0.79690281       0.43951031 </v>
   <v>       0.27445275       0.44982249       0.44036936 </v>
   <v>       0.50744941       0.77134333       0.54813727 </v>
   <v>       0.29787077       0.49974778       0.54847963 </v>
  </varray>
 </structure>
</modeling>
