<?xml version="1.0" encoding="ISO-8859-1"?>
<modeling>
 <generator>
  <i name="program" type="string">vasp </i>
  <i name="version" type="string">5.4.4.18Apr17-6-g9f103f2a35  </i>
  <i name="subversion" type="string">(build Jun 07 2020 16:50:00) complex            parallel </i>
  <i name="platform" type="string">LinuxIFC </i>
  <i name="date" type="string">2023 03 05 </i>
  <i name="time" type="string">08:40:37 </i>
 </generator>
 <incar>
  <i type="string" name="SYSTEM">Simulation for cell shape cell volume r</i>
  <i type="int" name="ISTART">     1</i>
  <i type="string" name="PREC">high</i>
  <i type="string" name="ALGO">48</i>
  <i type="int" name="ICHARG">    11</i>
  <i type="int" name="NELM">   200</i>
  <i type="int" name="IBRION">    -1</i>
  <i name="EDIFF">      0.00001000</i>
  <i name="EDIFFG">     -0.01000000</i>
  <i type="int" name="NSW">     0</i>
  <i type="int" name="ISIF">     2</i>
  <i name="ENCUT">    500.00000000</i>
  <i name="POTIM">      0.30000000</i>
  <i type="string" name="LREAL">A</i>
  <i type="int" name="ISMEAR">     0</i>
  <i name="SIGMA">      0.01000000</i>
  <i type="int" name="NWRITE">     0</i>
  <i type="logical" name="LWAVE"> F  </i>
  <i type="logical" name="LCHARG"> F  </i>
  <v type="int" name="KPOINT_BSE">    -1     0     0     0</v>
  <i type="int" name="NELM">   200</i>
  <i type="string" name="GGA">PE</i>
 </incar>
 <structure name="primitive_cell" >
  <crystal>
   <varray name="basis" >
    <v>      21.88213274      -0.00704359       0.00000000 </v>
    <v>     -10.94701190      18.95403137       0.00000000 </v>
    <v>       0.00000000       0.00000000      20.00000000 </v>
   </varray>
   <i name="volume">   8293.55048133 </i>
   <varray name="rec_basis" >
    <v>       0.04570788       0.02639886       0.00000000 </v>
    <v>       0.00001699       0.05276903       0.00000000 </v>
    <v>       0.00000000       0.00000000       0.05000000 </v>
   </varray>
  </crystal>
  <varray name="positions" >
   <v>       0.28783097      -0.34241589      -0.45935051 </v>
   <v>       0.33701276      -0.27380051      -0.46079942 </v>
   <v>       0.30153427      -0.39601856      -0.45839916 </v>
   <v>       0.21799890      -0.35594057      -0.45933464 </v>
   <v>       0.40433778      -0.26012343      -0.46108423 </v>
   <v>       0.37016767      -0.37653809      -0.45955268 </v>
   <v>       0.16791056      -0.42090304      -0.45397087 </v>
   <v>       0.18083352      -0.46349689      -0.45028913 </v>
   <v>       0.42384298      -0.30924806      -0.46140357 </v>
   <v>       0.15677375      -0.30837189      -0.41244127 </v>
   <v>       0.38384321      -0.43265095      -0.45977043 </v>
   <v>       0.46054568      -0.19030843      -0.46172614 </v>
   <v>       0.39073430      -0.15351503      -0.44532616 </v>
   <v>       0.09267288      -0.44438244      -0.45422223 </v>
   <v>       0.44599034      -0.14043338      -0.45268407 </v>
   <v>       0.10707654      -0.32195282      -0.43733732 </v>
   <v>       0.12225847      -0.29339878      -0.48536794 </v>
   <v>       0.06243284      -0.40022791      -0.44844484 </v>
   <v>       0.44834640      -0.41802366      -0.45103554 </v>
   <v>       0.07259273       0.44888977      -0.46507470 </v>
   <v>       0.49057566      -0.36278500      -0.44372067 </v>
   <v>       0.04834860       0.48191120      -0.46170645 </v>
   <v>       0.33479397       0.45804689      -0.41438339 </v>
   <v>       0.07859603      -0.30158525      -0.40828097 </v>
   <v>       0.49772021      -0.06515717      -0.45327004 </v>
   <v>      -0.43009294      -0.13062638      -0.41811509 </v>
   <v>       0.41074859      -0.04516321      -0.46120337 </v>
   <v>      -0.01174249      -0.43108264      -0.45256305 </v>
   <v>       0.32087450       0.40690310      -0.48602921 </v>
   <v>       0.47185004      -0.46974580      -0.45214782 </v>
   <v>       0.34904414       0.42177435      -0.43779545 </v>
   <v>      -0.02400407       0.45178622      -0.46483889 </v>
   <v>       0.46810630      -0.02089572      -0.45901639 </v>
   <v>      -0.39359874      -0.07928117      -0.44002868 </v>
   <v>      -0.42774921      -0.03486557      -0.44919820 </v>
   <v>      -0.05481491       0.49475899      -0.45993812 </v>
   <v>       0.42749135       0.45575156      -0.44807562 </v>
   <v>      -0.37775411      -0.09082882      -0.48861828 </v>
   <v>      -0.01335181      -0.33735343      -0.48312937 </v>
   <v>       0.32885438       0.37361126      -0.40765422 </v>
   <v>      -0.04371091      -0.38385674      -0.45126944 </v>
   <v>      -0.05863325       0.39500322      -0.47012907 </v>
   <v>      -0.42112562      -0.38288050      -0.46065626 </v>
   <v>      -0.45431348      -0.44022359      -0.45858374 </v>
   <v>      -0.04327789      -0.36406546      -0.40051381 </v>
   <v>      -0.34592320      -0.05199582      -0.40909735 </v>
   <v>      -0.48973613       0.05144567      -0.46226635 </v>
   <v>      -0.09822586      -0.41038943      -0.46933285 </v>
   <v>      -0.38453125       0.03935222      -0.45292175 </v>
   <v>       0.45830935       0.41246409      -0.45270013 </v>
   <v>      -0.13182750       0.46063602      -0.45985741 </v>
   <v>       0.48797423       0.08601449      -0.46661215 </v>
   <v>      -0.41579528       0.08237479      -0.45874538 </v>
   <v>      -0.42428759      -0.48246735      -0.46258223 </v>
   <v>       0.36471487       0.31781876      -0.48498284 </v>
   <v>      -0.15641240       0.48994241      -0.43961764 </v>
   <v>      -0.46743368       0.44362815      -0.45918354 </v>
   <v>      -0.17094870       0.39693841      -0.48144328 </v>
   <v>       0.41087337       0.33326404      -0.45281492 </v>
   <v>      -0.28970524       0.04092553      -0.48534221 </v>
   <v>       0.39048601       0.31295908      -0.40241910 </v>
   <v>      -0.30530615       0.07123902      -0.45282501 </v>
   <v>      -0.36744417      -0.46027515      -0.46734561 </v>
   <v>      -0.28524199       0.07056319      -0.40246367 </v>
   <v>      -0.37288811       0.15936539      -0.45875306 </v>
   <v>       0.43747415       0.30552423      -0.47126661 </v>
   <v>      -0.27746650       0.12580111      -0.47071141 </v>
   <v>      -0.24410235       0.36885757      -0.47977728 </v>
   <v>      -0.43350937       0.40061512      -0.45950999 </v>
   <v>      -0.39820684       0.19837246      -0.47870842 </v>
   <v>      -0.31831063       0.18401152      -0.44022451 </v>
   <v>      -0.27067487       0.41276006      -0.48033448 </v>
   <v>      -0.46333310       0.34625219      -0.44046731 </v>
   <v>      -0.28257470       0.29815522      -0.47971441 </v>
   <v>      -0.36938632       0.42561547      -0.48007761 </v>
   <v>      -0.35307644       0.27153171      -0.47820386 </v>
   <v>      -0.34139662       0.38047075      -0.47890419 </v>
   <v>      -0.38531686       0.30999332      -0.47841174 </v>
  </varray>
 </structure>
 <varray name="primitive_index" >
  <v type="int" >        1 </v>
  <v type="int" >       38 </v>
  <v type="int" >       40 </v>
  <v type="int" >       37 </v>
  <v type="int" >        7 </v>
  <v type="int" >        8 </v>
  <v type="int" >        6 </v>
  <v type="int" >       53 </v>
  <v type="int" >       39 </v>
  <v type="int" >       49 </v>
  <v type="int" >       41 </v>
  <v type="int" >       42 </v>
  <v type="int" >       62 </v>
  <v type="int" >        4 </v>
  <v type="int" >       15 </v>
  <v type="int" >        3 </v>
  <v type="int" >       50 </v>
  <v type="int" >        2 </v>
  <v type="int" >       17 </v>
  <v type="int" >       52 </v>
  <v type="int" >       69 </v>
  <v type="int" >        5 </v>
  <v type="int" >       57 </v>
  <v type="int" >       51 </v>
  <v type="int" >       13 </v>
  <v type="int" >       63 </v>
  <v type="int" >       61 </v>
  <v type="int" >       33 </v>
  <v type="int" >       58 </v>
  <v type="int" >       16 </v>
  <v type="int" >       12 </v>
  <v type="int" >       36 </v>
  <v type="int" >       14 </v>
  <v type="int" >       21 </v>
  <v type="int" >       20 </v>
  <v type="int" >       32 </v>
  <v type="int" >       10 </v>
  <v type="int" >       64 </v>
  <v type="int" >       76 </v>
  <v type="int" >       59 </v>
  <v type="int" >       34 </v>
  <v type="int" >       78 </v>
  <v type="int" >       68 </v>
  <v type="int" >       26 </v>
  <v type="int" >       75 </v>
  <v type="int" >       65 </v>
  <v type="int" >       25 </v>
  <v type="int" >       74 </v>
  <v type="int" >       19 </v>
  <v type="int" >        9 </v>
  <v type="int" >       35 </v>
  <v type="int" >       60 </v>
  <v type="int" >       18 </v>
  <v type="int" >       27 </v>
  <v type="int" >       56 </v>
  <v type="int" >       77 </v>
  <v type="int" >       23 </v>
  <v type="int" >       48 </v>
  <v type="int" >       11 </v>
  <v type="int" >       72 </v>
  <v type="int" >       55 </v>
  <v type="int" >       31 </v>
  <v type="int" >       67 </v>
  <v type="int" >       71 </v>
  <v type="int" >       22 </v>
  <v type="int" >       54 </v>
  <v type="int" >       70 </v>
  <v type="int" >       28 </v>
  <v type="int" >       24 </v>
  <v type="int" >       45 </v>
  <v type="int" >       73 </v>
  <v type="int" >       47 </v>
  <v type="int" >       66 </v>
  <v type="int" >       46 </v>
  <v type="int" >       44 </v>
  <v type="int" >       29 </v>
  <v type="int" >       30 </v>
  <v type="int" >       43 </v>
 </varray>
 <kpoints>
  <generation param="listgenerated">
   <i name="divisions" type="int">      20 </i>
   <v>       0.00000000       0.00000000       0.00000000 </v>
   <v>       0.50000000       0.00000000       0.00000000 </v>
   <v>       0.33333333       0.33333333       0.00000000 </v>
   <v>       0.00000000       0.00000000       0.00000000 </v>
  </generation>
  <varray name="kpointlist" >
   <v>       0.00000000       0.00000000       0.00000000 </v>
   <v>       0.02631579       0.00000000       0.00000000 </v>
   <v>       0.05263158       0.00000000       0.00000000 </v>
   <v>       0.07894737       0.00000000       0.00000000 </v>
   <v>       0.10526316       0.00000000       0.00000000 </v>
   <v>       0.13157895       0.00000000       0.00000000 </v>
   <v>       0.15789474       0.00000000       0.00000000 </v>
   <v>       0.18421053       0.00000000       0.00000000 </v>
   <v>       0.21052632       0.00000000       0.00000000 </v>
   <v>       0.23684211       0.00000000       0.00000000 </v>
   <v>       0.26315789       0.00000000       0.00000000 </v>
   <v>       0.28947368       0.00000000       0.00000000 </v>
   <v>       0.31578947       0.00000000       0.00000000 </v>
   <v>       0.34210526       0.00000000       0.00000000 </v>
   <v>       0.36842105       0.00000000       0.00000000 </v>
   <v>       0.39473684       0.00000000       0.00000000 </v>
   <v>       0.42105263       0.00000000       0.00000000 </v>
   <v>       0.44736842       0.00000000       0.00000000 </v>
   <v>       0.47368421       0.00000000       0.00000000 </v>
   <v>       0.50000000       0.00000000       0.00000000 </v>
   <v>       0.50000000       0.00000000       0.00000000 </v>
   <v>       0.49122807       0.01754386       0.00000000 </v>
   <v>       0.48245614       0.03508772       0.00000000 </v>
   <v>       0.47368421       0.05263158       0.00000000 </v>
   <v>       0.46491228       0.07017544       0.00000000 </v>
   <v>       0.45614035       0.08771930       0.00000000 </v>
   <v>       0.44736842       0.10526316       0.00000000 </v>
   <v>       0.43859649       0.12280702       0.00000000 </v>
   <v>       0.42982456       0.14035088       0.00000000 </v>
   <v>       0.42105263       0.15789474       0.00000000 </v>
   <v>       0.41228070       0.17543860       0.00000000 </v>
   <v>       0.40350877       0.19298246       0.00000000 </v>
   <v>       0.39473684       0.21052632       0.00000000 </v>
   <v>       0.38596491       0.22807018       0.00000000 </v>
   <v>       0.37719298       0.24561404       0.00000000 </v>
   <v>       0.36842105       0.26315789       0.00000000 </v>
   <v>       0.35964912       0.28070175       0.00000000 </v>
   <v>       0.35087719       0.29824561       0.00000000 </v>
   <v>       0.34210526       0.31578947       0.00000000 </v>
   <v>       0.33333333       0.33333333       0.00000000 </v>
   <v>       0.33333333       0.33333333       0.00000000 </v>
   <v>       0.31578947       0.31578947       0.00000000 </v>
   <v>       0.29824561       0.29824561       0.00000000 </v>
   <v>       0.28070175       0.28070175       0.00000000 </v>
   <v>       0.26315789       0.26315789       0.00000000 </v>
   <v>       0.24561404       0.24561404       0.00000000 </v>
   <v>       0.22807018       0.22807018       0.00000000 </v>
   <v>       0.21052632       0.21052632       0.00000000 </v>
   <v>       0.19298246       0.19298246       0.00000000 </v>
   <v>       0.17543860       0.17543860       0.00000000 </v>
   <v>       0.15789474       0.15789474       0.00000000 </v>
   <v>       0.14035088       0.14035088       0.00000000 </v>
   <v>       0.12280702       0.12280702       0.00000000 </v>
   <v>       0.10526316       0.10526316       0.00000000 </v>
   <v>       0.08771930       0.08771930       0.00000000 </v>
   <v>       0.07017544       0.07017544       0.00000000 </v>
   <v>       0.05263158       0.05263158       0.00000000 </v>
   <v>       0.03508772       0.03508772       0.00000000 </v>
   <v>       0.01754386       0.01754386       0.00000000 </v>
   <v>       0.00000000       0.00000000       0.00000000 </v>
  </varray>
  <varray name="weights" >
   <v>       0.01666667 </v>
   <v>       0.01666667 </v>
   <v>       0.01666667 </v>
   <v>       0.01666667 </v>
   <v>       0.01666667 </v>
   <v>       0.01666667 </v>
   <v>       0.01666667 </v>
   <v>       0.01666667 </v>
   <v>       0.01666667 </v>
   <v>       0.01666667 </v>
   <v>       0.01666667 </v>
   <v>       0.01666667 </v>
   <v>       0.01666667 </v>
   <v>       0.01666667 </v>
   <v>       0.01666667 </v>
   <v>       0.01666667 </v>
   <v>       0.01666667 </v>
   <v>       0.01666667 </v>
   <v>       0.01666667 </v>
   <v>       0.01666667 </v>
   <v>       0.01666667 </v>
   <v>       0.01666667 </v>
   <v>       0.01666667 </v>
   <v>       0.01666667 </v>
   <v>       0.01666667 </v>
   <v>       0.01666667 </v>
   <v>       0.01666667 </v>
   <v>       0.01666667 </v>
   <v>       0.01666667 </v>
   <v>       0.01666667 </v>
   <v>       0.01666667 </v>
   <v>       0.01666667 </v>
   <v>       0.01666667 </v>
   <v>       0.01666667 </v>
   <v>       0.01666667 </v>
   <v>       0.01666667 </v>
   <v>       0.01666667 </v>
   <v>       0.01666667 </v>
   <v>       0.01666667 </v>
   <v>       0.01666667 </v>
   <v>       0.01666667 </v>
   <v>       0.01666667 </v>
   <v>       0.01666667 </v>
   <v>       0.01666667 </v>
   <v>       0.01666667 </v>
   <v>       0.01666667 </v>
   <v>       0.01666667 </v>
   <v>       0.01666667 </v>
   <v>       0.01666667 </v>
   <v>       0.01666667 </v>
   <v>       0.01666667 </v>
   <v>       0.01666667 </v>
   <v>       0.01666667 </v>
   <v>       0.01666667 </v>
   <v>       0.01666667 </v>
   <v>       0.01666667 </v>
   <v>       0.01666667 </v>
   <v>       0.01666667 </v>
   <v>       0.01666667 </v>
   <v>       0.01666667 </v>
  </varray>
 </kpoints>
 <parameters>
  <separator name="general" >
   <i type="string" name="SYSTEM">Simulation for cell shape cell volume r</i>
   <i type="logical" name="LCOMPAT"> F  </i>
  </separator>
  <separator name="electronic" >
   <i type="string" name="PREC">high</i>
   <i name="ENMAX">    500.00000000</i>
   <i name="ENAUG">    644.87300000</i>
   <i name="EDIFF">      0.00001000</i>
   <i type="int" name="IALGO">    38</i>
   <i type="int" name="IWAVPR">    10</i>
   <i type="int" name="NBANDS">   160</i>
   <i name="NELECT">    234.00000000</i>
   <i type="int" name="TURBO">     0</i>
   <i type="int" name="IRESTART">     0</i>
   <i type="int" name="NREBOOT">     0</i>
   <i type="int" name="NMIN">     0</i>
   <i name="EREF">      0.00000000</i>
   <separator name="electronic smearing" >
    <i type="int" name="ISMEAR">     0</i>
    <i name="SIGMA">      0.01000000</i>
    <i name="KSPACING">      0.50000000</i>
    <i type="logical" name="KGAMMA"> T  </i>
   </separator>
   <separator name="electronic projectors" >
    <i type="logical" name="LREAL"> T  </i>
    <v name="ROPT">     -0.00040000     -0.00040000     -0.00040000</v>
    <i type="int" name="LMAXPAW">  -100</i>
    <i type="int" name="LMAXMIX">     2</i>
    <i type="logical" name="NLSPLINE"> F  </i>
   </separator>
   <separator name="electronic startup" >
    <i type="int" name="ISTART">     1</i>
    <i type="int" name="ICHARG">    11</i>
    <i type="int" name="INIWAV">     1</i>
   </separator>
   <separator name="electronic spin" >
    <i type="int" name="ISPIN">     1</i>
    <i type="logical" name="LNONCOLLINEAR"> F  </i>
    <v name="MAGMOM">      1.00000000      1.00000000      1.00000000      1.00000000      1.00000000      1.00000000      1.00000000      1.00000000      1.00000000      1.00000000      1.00000000      1.00000000      1.00000000      1.00000000      1.00000000      1.00000000      1.00000000      1.00000000      1.00000000      1.00000000
      1.00000000      1.00000000      1.00000000      1.00000000      1.00000000      1.00000000      1.00000000      1.00000000      1.00000000      1.00000000      1.00000000      1.00000000      1.00000000      1.00000000      1.00000000      1.00000000      1.00000000      1.00000000      1.00000000      1.00000000
      1.00000000      1.00000000      1.00000000      1.00000000      1.00000000      1.00000000      1.00000000      1.00000000      1.00000000      1.00000000      1.00000000      1.00000000      1.00000000      1.00000000      1.00000000      1.00000000      1.00000000      1.00000000      1.00000000      1.00000000
      1.00000000      1.00000000      1.00000000      1.00000000      1.00000000      1.00000000      1.00000000      1.00000000      1.00000000      1.00000000      1.00000000      1.00000000      1.00000000      1.00000000      1.00000000      1.00000000      1.00000000      1.00000000</v>
    <i name="NUPDOWN">     -1.00000000</i>
    <i type="logical" name="LSORBIT"> F  </i>
    <v name="SAXIS">      0.00000000      0.00000000      1.00000000</v>
    <i type="logical" name="LSPIRAL"> F  </i>
    <v name="QSPIRAL">      0.00000000      0.00000000      0.00000000</v>
    <i type="logical" name="LZEROZ"> F  </i>
   </separator>
   <separator name="electronic exchange-correlation" >
    <i type="logical" name="LASPH"> F  </i>
    <i type="logical" name="LMETAGGA"> F  </i>
   </separator>
   <separator name="electronic convergence" >
    <i type="int" name="NELM">   200</i>
    <i type="int" name="NELMDL">     0</i>
    <i type="int" name="NELMIN">     2</i>
    <i name="ENINI">    500.00000000</i>
    <separator name="electronic convergence detail" >
     <i type="logical" name="LDIAG"> T  </i>
     <i type="logical" name="LSUBROT"> F  </i>
     <i name="WEIMIN">      0.00000000</i>
     <i name="EBREAK">      0.00000002</i>
     <i name="DEPER">      0.30000000</i>
     <i type="int" name="NRMM">     4</i>
     <i name="TIME">      0.40000000</i>
    </separator>
   </separator>
   <separator name="electronic mixer" >
    <i name="AMIX">      0.40000000</i>
    <i name="BMIX">      1.00000000</i>
    <i name="AMIN">      0.10000000</i>
    <i name="AMIX_MAG">      1.60000000</i>
    <i name="BMIX_MAG">      1.00000000</i>
    <separator name="electronic mixer details" >
     <i type="int" name="IMIX">     4</i>
     <i type="logical" name="MIXFIRST"> F  </i>
     <i type="int" name="MAXMIX">   -45</i>
     <i name="WC">    100.00000000</i>
     <i type="int" name="INIMIX">     1</i>
     <i type="int" name="MIXPRE">     1</i>
     <i type="int" name="MREMOVE">     5</i>
    </separator>
   </separator>
   <separator name="electronic dipolcorrection" >
    <i type="logical" name="LDIPOL"> F  </i>
    <i type="logical" name="LMONO"> F  </i>
    <i type="int" name="IDIPOL">     0</i>
    <i name="EPSILON">      1.00000000</i>
    <v name="DIPOL">   -100.00000000   -100.00000000   -100.00000000</v>
    <i name="EFIELD">      0.00000000</i>
   </separator>
  </separator>
  <separator name="grids" >
   <i type="int" name="NGX">   160</i>
   <i type="int" name="NGY">   160</i>
   <i type="int" name="NGZ">   150</i>
   <i type="int" name="NGXF">   250</i>
   <i type="int" name="NGYF">   250</i>
   <i type="int" name="NGZF">   224</i>
   <i type="logical" name="ADDGRID"> F  </i>
  </separator>
  <separator name="ionic" >
   <i type="int" name="NSW">     0</i>
   <i type="int" name="IBRION">    -1</i>
   <i type="int" name="MDALGO">     0</i>
   <i type="int" name="ISIF">     2</i>
   <i name="PSTRESS">      0.00000000</i>
   <i name="EDIFFG">     -0.01000000</i>
   <i type="int" name="NFREE">     0</i>
   <i name="POTIM">      0.30000000</i>
   <i name="SMASS">     -3.00000000</i>
   <i name="SCALEE">      1.00000000</i>
  </separator>
  <separator name="ionic md" >
   <i name="TEBEG">      0.00010000</i>
   <i name="TEEND">      0.00010000</i>
   <i type="int" name="NBLOCK">     1</i>
   <i type="int" name="KBLOCK">     1</i>
   <i type="int" name="NPACO">   256</i>
   <i name="APACO">     16.00000000</i>
  </separator>
  <separator name="symmetry" >
   <i type="int" name="ISYM">     2</i>
   <i name="SYMPREC">      0.00001000</i>
  </separator>
  <separator name="dos" >
   <i type="int" name="LORBIT">     0</i>
   <v name="RWIGS">     -1.00000000     -1.00000000     -1.00000000</v>
   <i type="int" name="NEDOS">   301</i>
   <i name="EMIN">     10.00000000</i>
   <i name="EMAX">    -10.00000000</i>
   <i name="EFERMI">      0.00000000</i>
  </separator>
  <separator name="writing" >
   <i type="int" name="NWRITE">     0</i>
   <i type="logical" name="LWAVE"> F  </i>
   <i type="logical" name="LDOWNSAMPLE"> F  </i>
   <i type="logical" name="LCHARG"> F  </i>
   <i type="logical" name="LPARD"> F  </i>
   <i type="logical" name="LVTOT"> F  </i>
   <i type="logical" name="LVHAR"> F  </i>
   <i type="logical" name="LELF"> F  </i>
   <i type="logical" name="LOPTICS"> F  </i>
   <v name="STM">      0.00000000      0.00000000      0.00000000      0.00000000      0.00000000      0.00000000      0.00000000</v>
  </separator>
  <separator name="performance" >
   <i type="int" name="NPAR">    16</i>
   <i type="int" name="NSIM">     4</i>
   <i type="int" name="NBLK">    -1</i>
   <i type="logical" name="LPLANE"> T  </i>
   <i type="logical" name="LSCALAPACK"> T  </i>
   <i type="logical" name="LSCAAWARE"> F  </i>
   <i type="logical" name="LSCALU"> F  </i>
   <i type="logical" name="LASYNC"> F  </i>
   <i type="logical" name="LORBITALREAL"> F  </i>
  </separator>
  <separator name="miscellaneous" >
   <i type="int" name="IDIOT">     3</i>
   <i type="int" name="ISPECIAL">     0</i>
   <i type="logical" name="LMUSIC"> F  </i>
   <v name="POMASS">     12.01100000     14.00100000      1.00000000</v>
   <v name="DARWINR">      0.00000000      0.00000000      0.00000000</v>
   <v name="DARWINV">      1.00000000      1.00000000      1.00000000</v>
   <i type="logical" name="LCORR"> T  </i>
  </separator>
  <i type="logical" name="GGA_COMPAT"> T  </i>
  <i type="logical" name="LBERRY"> F  </i>
  <i type="int" name="ICORELEVEL">     0</i>
  <i type="logical" name="LDAU"> F  </i>
  <i type="int" name="I_CONSTRAINED_M">     0</i>
  <separator name="electronic exchange-correlation" >
   <i type="string" name="GGA">PE</i>
   <i type="int" name="VOSKOWN">     0</i>
   <i type="logical" name="LHFCALC"> F  </i>
   <i type="string" name="PRECFOCK"></i>
   <i type="logical" name="LSYMGRAD"> F  </i>
   <i type="logical" name="LHFONE"> F  </i>
   <i type="logical" name="LRHFCALC"> F  </i>
   <i type="logical" name="LTHOMAS"> F  </i>
   <i type="logical" name="LMODELHF"> F  </i>
   <i name="ENCUT4O">     -1.00000000</i>
   <i type="int" name="EXXOEP">     0</i>
   <i type="int" name="FOURORBIT">     0</i>
   <i name="AEXX">      0.00000000</i>
   <i name="HFALPHA">      0.00000000</i>
   <i name="MCALPHA">      0.00000000</i>
   <i name="ALDAX">      1.00000000</i>
   <i name="AGGAX">      1.00000000</i>
   <i name="ALDAC">      1.00000000</i>
   <i name="AGGAC">      1.00000000</i>
   <i type="int" name="NKREDX">     1</i>
   <i type="int" name="NKREDY">     1</i>
   <i type="int" name="NKREDZ">     1</i>
   <i type="logical" name="SHIFTRED"> F  </i>
   <i type="logical" name="ODDONLY"> F  </i>
   <i type="logical" name="EVENONLY"> F  </i>
   <i type="int" name="LMAXFOCK">     0</i>
   <i type="int" name="NMAXFOCKAE">     0</i>
   <i type="logical" name="LFOCKAEDFT"> F  </i>
   <i name="HFSCREEN">      0.00000000</i>
   <i name="HFSCREENC">      0.00000000</i>
   <i type="int" name="NBANDSGWLOW">     0</i>
  </separator>
  <separator name="vdW DFT" >
   <i type="logical" name="LUSE_VDW"> F  </i>
   <i name="Zab_VDW">     -0.84910000</i>
   <i name="PARAM1">      0.12340000</i>
   <i name="PARAM2">      1.00000000</i>
   <i name="PARAM3">      0.00000000</i>
  </separator>
  <separator name="model GW" >
   <i type="int" name="MODEL_GW">     0</i>
   <i name="MODEL_EPS0">     63.79654216</i>
   <i name="MODEL_ALPHA">      1.00000000</i>
  </separator>
  <separator name="linear response parameters" >
   <i type="logical" name="LEPSILON"> F  </i>
   <i type="logical" name="LRPA"> F  </i>
   <i type="logical" name="LNABLA"> F  </i>
   <i type="logical" name="LVEL"> F  </i>
   <i type="int" name="KINTER">     0</i>
   <i name="CSHIFT">      0.10000000</i>
   <i name="OMEGAMAX">     -1.00000000</i>
   <i name="DEG_THRESHOLD">      0.00200000</i>
   <i name="RTIME">     -0.10000000</i>
   <i name="WPLASMAI">      0.00000000</i>
   <v name="DFIELD">      0.00000000      0.00000000      0.00000000</v>
   <v name="WPLASMA">      0.00000000      0.00000000      0.00000000      0.00000000      0.00000000      0.00000000      0.00000000      0.00000000      0.00000000</v>
  </separator>
  <separator name="orbital magnetization" >
   <i type="logical" name="NUCIND"> F  </i>
   <v name="MAGPOS">      0.00000000      0.00000000      0.00000000</v>
   <i type="logical" name="LNICSALL"> T  </i>
   <i type="logical" name="ORBITALMAG"> F  </i>
   <i type="logical" name="LMAGBLOCH"> F  </i>
   <i type="logical" name="LCHIMAG"> F  </i>
   <i type="logical" name="LGAUGE"> T  </i>
   <i type="int" name="MAGATOM">     0</i>
   <v name="MAGDIPOL">      0.00000000      0.00000000      0.00000000</v>
   <v name="AVECCONST">      0.00000000      0.00000000      0.00000000</v>
  </separator>
  <separator name="response functions" >
   <i type="logical" name="LADDER"> F  </i>
   <i type="logical" name="LRPAFORCE"> F  </i>
   <i type="logical" name="LFXC"> F  </i>
   <i type="logical" name="LHARTREE"> T  </i>
   <i type="int" name="IBSE">     0</i>
   <v type="int" name="KPOINT">    -1     0     0     0</v>
   <i type="logical" name="LTCTE"> F  </i>
   <i type="logical" name="LTETE"> F  </i>
   <i type="logical" name="LTRIPLET"> F  </i>
   <i type="logical" name="LFXCEPS"> F  </i>
   <i type="logical" name="LFXHEG"> F  </i>
   <i type="int" name="NATURALO">     2</i>
   <i type="logical" name="L2ORDER"> F  </i>
   <i type="logical" name="LMP2LT"> F  </i>
   <i type="logical" name="LUSEW"> F  </i>
   <i name="ENCUTGW">     -2.00000000</i>
   <i name="ENCUTGWSOFT">     -2.00000000</i>
   <i name="ENCUTLF">     -1.00000000</i>
   <i type="int" name="LMAXMP2">    -1</i>
   <i name="SCISSOR">      0.00000000</i>
   <i type="int" name="NOMEGA">     0</i>
   <i type="int" name="NOMEGAR">     0</i>
   <i type="int" name="NBANDSGW">    -1</i>
   <i type="int" name="NBANDSO">    -1</i>
   <i type="int" name="NBANDSV">    -1</i>
   <i type="int" name="NELM">   200</i>
   <i type="int" name="NELMHF">     1</i>
   <i type="int" name="DIM">     3</i>
   <i type="int" name="ANTIRES">     0</i>
   <i name="OMEGAMAX">    -30.00000000</i>
   <i name="OMEGAMIN">    -30.00000000</i>
   <i name="OMEGATL">   -200.00000000</i>
   <i type="int" name="OMEGAGRID">   140</i>
   <i name="CSHIFT">     -0.10000000</i>
   <i type="logical" name="SELFENERGY"> F  </i>
   <i type="logical" name="LSPECTRAL"> F  </i>
   <i type="logical" name="LSPECTRALGW"> F  </i>
   <i type="logical" name="LSINGLES"> F  </i>
   <i type="logical" name="LFERMIGW"> F  </i>
   <i type="logical" name="ODDONLYGW"> F  </i>
   <i type="logical" name="EVENONLYGW"> F  </i>
   <i type="int" name="NKREDLFX">     1</i>
   <i type="int" name="NKREDLFY">     1</i>
   <i type="int" name="NKREDLFZ">     1</i>
   <i type="int" name="MAXMEM">  2800</i>
   <i type="int" name="TELESCOPE">     0</i>
   <i type="int" name="TAUPAR">     1</i>
   <i type="int" name="OMEGAPAR">    -1</i>
   <i name="LAMBDA">      1.00000000</i>
  </separator>
  <separator name="External order field" >
   <i name="OFIELD_KAPPA">      0.00000000</i>
   <v name="OFIELD_K">      0.00000000      0.00000000      0.00000000</v>
   <i name="OFIELD_Q6_NEAR">      0.00000000</i>
   <i name="OFIELD_Q6_FAR">      0.00000000</i>
   <i name="OFIELD_A">      0.00000000</i>
  </separator>
  <separator name="solvation model" >
   <i type="logical" name="LSOL"> F  </i>
  </separator>
 </parameters>
 <atominfo>
  <atoms>      78 </atoms>
  <types>       3 </types>
  <array name="atoms" >
   <dimension dim="1">ion</dimension>
   <field type="string">element</field>
   <field type="int">atomtype</field>
   <set>
    <rc><c>C </c><c>   1</c></rc>
    <rc><c>C </c><c>   1</c></rc>
    <rc><c>C </c><c>   1</c></rc>
    <rc><c>C </c><c>   1</c></rc>
    <rc><c>C </c><c>   1</c></rc>
    <rc><c>C </c><c>   1</c></rc>
    <rc><c>C </c><c>   1</c></rc>
    <rc><c>C </c><c>   1</c></rc>
    <rc><c>C </c><c>   1</c></rc>
    <rc><c>C </c><c>   1</c></rc>
    <rc><c>C </c><c>   1</c></rc>
    <rc><c>C </c><c>   1</c></rc>
    <rc><c>C </c><c>   1</c></rc>
    <rc><c>C </c><c>   1</c></rc>
    <rc><c>C </c><c>   1</c></rc>
    <rc><c>C </c><c>   1</c></rc>
    <rc><c>C </c><c>   1</c></rc>
    <rc><c>C </c><c>   1</c></rc>
    <rc><c>C </c><c>   1</c></rc>
    <rc><c>C </c><c>   1</c></rc>
    <rc><c>C </c><c>   1</c></rc>
    <rc><c>C </c><c>   1</c></rc>
    <rc><c>C </c><c>   1</c></rc>
    <rc><c>C </c><c>   1</c></rc>
    <rc><c>C </c><c>   1</c></rc>
    <rc><c>C </c><c>   1</c></rc>
    <rc><c>C </c><c>   1</c></rc>
    <rc><c>C </c><c>   1</c></rc>
    <rc><c>C </c><c>   1</c></rc>
    <rc><c>C </c><c>   1</c></rc>
    <rc><c>C </c><c>   1</c></rc>
    <rc><c>C </c><c>   1</c></rc>
    <rc><c>C </c><c>   1</c></rc>
    <rc><c>C </c><c>   1</c></rc>
    <rc><c>C </c><c>   1</c></rc>
    <rc><c>C </c><c>   1</c></rc>
    <rc><c>N </c><c>   2</c></rc>
    <rc><c>N </c><c>   2</c></rc>
    <rc><c>N </c><c>   2</c></rc>
    <rc><c>N </c><c>   2</c></rc>
    <rc><c>N </c><c>   2</c></rc>
    <rc><c>N </c><c>   2</c></rc>
    <rc><c>N </c><c>   2</c></rc>
    <rc><c>N </c><c>   2</c></rc>
    <rc><c>N </c><c>   2</c></rc>
    <rc><c>N </c><c>   2</c></rc>
    <rc><c>N </c><c>   2</c></rc>
    <rc><c>N </c><c>   2</c></rc>
    <rc><c>H </c><c>   3</c></rc>
    <rc><c>H </c><c>   3</c></rc>
    <rc><c>H </c><c>   3</c></rc>
    <rc><c>H </c><c>   3</c></rc>
    <rc><c>H </c><c>   3</c></rc>
    <rc><c>H </c><c>   3</c></rc>
    <rc><c>H </c><c>   3</c></rc>
    <rc><c>H </c><c>   3</c></rc>
    <rc><c>H </c><c>   3</c></rc>
    <rc><c>H </c><c>   3</c></rc>
    <rc><c>H </c><c>   3</c></rc>
    <rc><c>H </c><c>   3</c></rc>
    <rc><c>H </c><c>   3</c></rc>
    <rc><c>H </c><c>   3</c></rc>
    <rc><c>H </c><c>   3</c></rc>
    <rc><c>H </c><c>   3</c></rc>
    <rc><c>H </c><c>   3</c></rc>
    <rc><c>H </c><c>   3</c></rc>
    <rc><c>H </c><c>   3</c></rc>
    <rc><c>H </c><c>   3</c></rc>
    <rc><c>H </c><c>   3</c></rc>
    <rc><c>H </c><c>   3</c></rc>
    <rc><c>H </c><c>   3</c></rc>
    <rc><c>H </c><c>   3</c></rc>
    <rc><c>H </c><c>   3</c></rc>
    <rc><c>H </c><c>   3</c></rc>
    <rc><c>H </c><c>   3</c></rc>
    <rc><c>H </c><c>   3</c></rc>
    <rc><c>H </c><c>   3</c></rc>
    <rc><c>H </c><c>   3</c></rc>
   </set>
  </array>
  <array name="atomtypes" >
   <dimension dim="1">type</dimension>
   <field type="int">atomspertype</field>
   <field type="string">element</field>
   <field>mass</field>
   <field>valence</field>
   <field type="string">pseudopotential</field>
   <set>
    <rc><c>  36</c><c>C </c><c>     12.01100000</c><c>      4.00000000</c><c>  PAW_PBE C 08Apr2002                   </c></rc>
    <rc><c>  12</c><c>N </c><c>     14.00100000</c><c>      5.00000000</c><c>  PAW_PBE N 08Apr2002                   </c></rc>
    <rc><c>  30</c><c>H </c><c>      1.00000000</c><c>      1.00000000</c><c>  PAW_PBE H 15Jun2001                   </c></rc>
   </set>
  </array>
 </atominfo>
 <structure name="initialpos" >
  <crystal>
   <varray name="basis" >
    <v>      21.88213274      -0.00704359       0.00000000 </v>
    <v>     -10.94701190      18.95403137       0.00000000 </v>
    <v>       0.00000000       0.00000000      20.00000000 </v>
   </varray>
   <i name="volume">   8293.55048133 </i>
   <varray name="rec_basis" >
    <v>       0.04570788       0.02639886       0.00000000 </v>
    <v>       0.00001699       0.05276903       0.00000000 </v>
    <v>       0.00000000       0.00000000       0.05000000 </v>
   </varray>
  </crystal>
  <varray name="positions" >
   <v>       0.28783097       0.65758411       0.54064949 </v>
   <v>       0.06243284       0.59977209       0.55155516 </v>
   <v>       0.10707654       0.67804718       0.56266268 </v>
   <v>       0.09267288       0.55561756       0.54577777 </v>
   <v>       0.04834860       0.48191120       0.53829355 </v>
   <v>       0.16791056       0.57909696       0.54602913 </v>
   <v>       0.40433778       0.73987657       0.53891577 </v>
   <v>       0.37016767       0.62346191       0.54044732 </v>
   <v>       0.45830935       0.41246409       0.54729987 </v>
   <v>       0.42749135       0.45575156       0.55192438 </v>
   <v>       0.41087337       0.33326404       0.54718508 </v>
   <v>       0.34904414       0.42177435       0.56220455 </v>
   <v>       0.49772021       0.93484283       0.54672996 </v>
   <v>       0.46810630       0.97910428       0.54098361 </v>
   <v>       0.44599034       0.85956662       0.54731593 </v>
   <v>       0.47185004       0.53025420       0.54785218 </v>
   <v>       0.44834640       0.58197634       0.54896446 </v>
   <v>       0.58420472       0.08237479       0.54125462 </v>
   <v>       0.61546875       0.03935222       0.54707825 </v>
   <v>       0.57225079       0.96513443       0.55080180 </v>
   <v>       0.60640126       0.92071883       0.55997132 </v>
   <v>       0.62711189       0.15936539       0.54124694 </v>
   <v>       0.53256632       0.44362815       0.54081646 </v>
   <v>       0.56649063       0.40061512       0.54049001 </v>
   <v>       0.51026387       0.05144567       0.53773365 </v>
   <v>       0.54568652       0.55977641       0.54141626 </v>
   <v>       0.57571241       0.51753265       0.53741777 </v>
   <v>       0.75589765       0.36885757       0.52022272 </v>
   <v>       0.64692356       0.27153171       0.52179614 </v>
   <v>       0.65860338       0.38047075       0.52109581 </v>
   <v>       0.69469385       0.07123902       0.54717499 </v>
   <v>       0.94518509       0.49475899       0.54006188 </v>
   <v>       0.98825751       0.56891736       0.54743695 </v>
   <v>       0.95628909       0.61614326       0.54873056 </v>
   <v>       0.86817250       0.46063602       0.54014259 </v>
   <v>       0.97599593       0.45178622       0.53516111 </v>
   <v>       0.21799890       0.64405943       0.54066536 </v>
   <v>       0.33701276       0.72619949       0.53920058 </v>
   <v>       0.42384298       0.69075194       0.53859643 </v>
   <v>       0.30153427       0.60398144       0.54160084 </v>
   <v>       0.38384321       0.56734905       0.54022957 </v>
   <v>       0.46054568       0.80969157       0.53827386 </v>
   <v>       0.61468314       0.30999332       0.52158826 </v>
   <v>       0.63061368       0.42561547       0.51992239 </v>
   <v>       0.60179316       0.19837246       0.52129158 </v>
   <v>       0.71742530       0.29815522       0.52028559 </v>
   <v>       0.72932513       0.41276006       0.51966552 </v>
   <v>       0.82905130       0.39693841       0.51855672 </v>
   <v>       0.15677375       0.69162811       0.58755873 </v>
   <v>       0.12225847       0.70660122       0.51463206 </v>
   <v>       0.07859603       0.69841475       0.59171903 </v>
   <v>       0.07259273       0.44888977       0.53492530 </v>
   <v>       0.18083352       0.53650311       0.54971087 </v>
   <v>       0.43747415       0.30552423       0.52873339 </v>
   <v>       0.39048601       0.31295908       0.59758090 </v>
   <v>       0.36471487       0.31781876       0.51501716 </v>
   <v>       0.33479397       0.45804689       0.58561661 </v>
   <v>       0.32087450       0.40690310       0.51397079 </v>
   <v>       0.32885438       0.37361126       0.59234578 </v>
   <v>       0.48797423       0.08601449       0.53338785 </v>
   <v>       0.41074859       0.95483679       0.53879663 </v>
   <v>       0.39073430       0.84648497       0.55467384 </v>
   <v>       0.56990706       0.86937362       0.58188491 </v>
   <v>       0.62224589       0.90917118       0.51138172 </v>
   <v>       0.65407680       0.94800418       0.59090265 </v>
   <v>       0.53666690       0.34625219       0.55953269 </v>
   <v>       0.63255583       0.53972485       0.53265439 </v>
   <v>       0.57887438       0.61711950       0.53934374 </v>
   <v>       0.49057566       0.63721500       0.55627933 </v>
   <v>       0.72253350       0.12580111       0.52928859 </v>
   <v>       0.71475801       0.07056319       0.59753633 </v>
   <v>       0.71029476       0.04092553       0.51465779 </v>
   <v>       0.68168937       0.18401152       0.55977549 </v>
   <v>       0.90177414       0.58961057       0.53066715 </v>
   <v>       0.95672211       0.63593454       0.59948619 </v>
   <v>       0.98664819       0.66264657       0.51687063 </v>
   <v>       0.84358760       0.48994241       0.56038236 </v>
   <v>       0.94136675       0.39500322       0.52987093 </v>
  </varray>
 </structure>
 <calculation>
  <scstep>
   <time name="dav">   96.19   96.98</time>
   <time name="total">   96.34   97.14</time>
   <energy>
    <i name="alphaZ">     30.21782078 </i>
    <i name="ewald">  24735.87336413 </i>
    <i name="hartreedc"> -31999.21265169 </i>
    <i name="XCdc">    820.59624319 </i>
    <i name="pawpsdc">  21336.78973689 </i>
    <i name="pawaedc"> -21378.74845076 </i>
    <i name="eentropy">     -0.00000000 </i>
    <i name="bandstr">  -2922.37695462 </i>
    <i name="atom">   8846.35427007 </i>
    <i name="e_fr_energy">   -530.50662201 </i>
    <i name="e_wo_entrp">   -530.50662201 </i>
    <i name="e_0_energy">   -530.50662201 </i>
   </energy>
  </scstep>
  <scstep>
   <time name="dav">  111.19  112.09</time>
   <time name="total">  111.20  112.10</time>
   <energy>
    <i name="e_fr_energy">   -531.09103397 </i>
    <i name="e_wo_entrp">   -531.09103397 </i>
    <i name="e_0_energy">   -531.09103397 </i>
   </energy>
  </scstep>
  <scstep>
   <time name="dav">  123.62  124.61</time>
   <time name="total">  123.63  124.62</time>
   <energy>
    <i name="e_fr_energy">   -531.10628189 </i>
    <i name="e_wo_entrp">   -531.10628189 </i>
    <i name="e_0_energy">   -531.10628189 </i>
   </energy>
  </scstep>
  <scstep>
   <time name="dav">  109.23  110.09</time>
   <time name="total">  109.24  110.09</time>
   <energy>
    <i name="e_fr_energy">   -531.10654264 </i>
    <i name="e_wo_entrp">   -531.10654264 </i>
    <i name="e_0_energy">   -531.10654264 </i>
   </energy>
  </scstep>
  <scstep>
   <time name="dav">  110.88  111.74</time>
   <time name="total">  110.88  111.75</time>
   <energy>
    <i name="e_fr_energy">   -531.10655521 </i>
    <i name="e_wo_entrp">   -531.10655521 </i>
    <i name="e_0_energy">   -531.10655521 </i>
   </energy>
  </scstep>
  <scstep>
   <time name="dav">   85.87   86.54</time>
   <time name="total">   85.88   86.54</time>
   <energy>
    <i name="alphaZ">     30.21782078 </i>
    <i name="ewald">  24735.87336413 </i>
    <i name="hartreedc"> -31999.21265169 </i>
    <i name="XCdc">    820.59624319 </i>
    <i name="pawpsdc">  21336.78973689 </i>
    <i name="pawaedc"> -21378.74845076 </i>
    <i name="eentropy">     -0.00000000 </i>
    <i name="bandstr">  -2922.97688808 </i>
    <i name="atom">   8846.35427007 </i>
    <i name="e_fr_energy">   -531.10655546 </i>
    <i name="e_wo_entrp">   -531.10655546 </i>
    <i name="e_0_energy">   -531.10655546 </i>
   </energy>
  </scstep>
  <structure>
   <crystal>
    <varray name="basis" >
     <v>      21.88213274      -0.00704359       0.00000000 </v>
     <v>     -10.94701190      18.95403137       0.00000000 </v>
     <v>       0.00000000       0.00000000      20.00000000 </v>
    </varray>
    <i name="volume">   8293.55048133 </i>
    <varray name="rec_basis" >
     <v>       0.04570788       0.02639886       0.00000000 </v>
     <v>       0.00001699       0.05276903       0.00000000 </v>
     <v>       0.00000000       0.00000000       0.05000000 </v>
    </varray>
   </crystal>
   <varray name="positions" >
    <v>       0.28783097       0.65758411       0.54064949 </v>
    <v>       0.06243284       0.59977209       0.55155516 </v>
    <v>       0.10707654       0.67804718       0.56266268 </v>
    <v>       0.09267288       0.55561756       0.54577777 </v>
    <v>       0.04834860       0.48191120       0.53829355 </v>
    <v>       0.16791056       0.57909696       0.54602913 </v>
    <v>       0.40433778       0.73987657       0.53891577 </v>
    <v>       0.37016767       0.62346191       0.54044732 </v>
    <v>       0.45830935       0.41246409       0.54729987 </v>
    <v>       0.42749135       0.45575156       0.55192438 </v>
    <v>       0.41087337       0.33326404       0.54718508 </v>
    <v>       0.34904414       0.42177435       0.56220455 </v>
    <v>       0.49772021       0.93484283       0.54672996 </v>
    <v>       0.46810630       0.97910428       0.54098361 </v>
    <v>       0.44599034       0.85956662       0.54731593 </v>
    <v>       0.47185004       0.53025420       0.54785218 </v>
    <v>       0.44834640       0.58197634       0.54896446 </v>
    <v>       0.58420472       0.08237479       0.54125462 </v>
    <v>       0.61546875       0.03935222       0.54707825 </v>
    <v>       0.57225079       0.96513443       0.55080180 </v>
    <v>       0.60640126       0.92071883       0.55997132 </v>
    <v>       0.62711189       0.15936539       0.54124694 </v>
    <v>       0.53256632       0.44362815       0.54081646 </v>
    <v>       0.56649063       0.40061512       0.54049001 </v>
    <v>       0.51026387       0.05144567       0.53773365 </v>
    <v>       0.54568652       0.55977641       0.54141626 </v>
    <v>       0.57571241       0.51753265       0.53741777 </v>
    <v>       0.75589765       0.36885757       0.52022272 </v>
    <v>       0.64692356       0.27153171       0.52179614 </v>
    <v>       0.65860338       0.38047075       0.52109581 </v>
    <v>       0.69469385       0.07123902       0.54717499 </v>
    <v>       0.94518509       0.49475899       0.54006188 </v>
    <v>       0.98825751       0.56891736       0.54743695 </v>
    <v>       0.95628909       0.61614326       0.54873056 </v>
    <v>       0.86817250       0.46063602       0.54014259 </v>
    <v>       0.97599593       0.45178622       0.53516111 </v>
    <v>       0.21799890       0.64405943       0.54066536 </v>
    <v>       0.33701276       0.72619949       0.53920058 </v>
    <v>       0.42384298       0.69075194       0.53859643 </v>
    <v>       0.30153427       0.60398144       0.54160084 </v>
    <v>       0.38384321       0.56734905       0.54022957 </v>
    <v>       0.46054568       0.80969157       0.53827386 </v>
    <v>       0.61468314       0.30999332       0.52158826 </v>
    <v>       0.63061368       0.42561547       0.51992239 </v>
    <v>       0.60179316       0.19837246       0.52129158 </v>
    <v>       0.71742530       0.29815522       0.52028559 </v>
    <v>       0.72932513       0.41276006       0.51966552 </v>
    <v>       0.82905130       0.39693841       0.51855672 </v>
    <v>       0.15677375       0.69162811       0.58755873 </v>
    <v>       0.12225847       0.70660122       0.51463206 </v>
    <v>       0.07859603       0.69841475       0.59171903 </v>
    <v>       0.07259273       0.44888977       0.53492530 </v>
    <v>       0.18083352       0.53650311       0.54971087 </v>
    <v>       0.43747415       0.30552423       0.52873339 </v>
    <v>       0.39048601       0.31295908       0.59758090 </v>
    <v>       0.36471487       0.31781876       0.51501716 </v>
    <v>       0.33479397       0.45804689       0.58561661 </v>
    <v>       0.32087450       0.40690310       0.51397079 </v>
    <v>       0.32885438       0.37361126       0.59234578 </v>
    <v>       0.48797423       0.08601449       0.53338785 </v>
    <v>       0.41074859       0.95483679       0.53879663 </v>
    <v>       0.39073430       0.84648497       0.55467384 </v>
    <v>       0.56990706       0.86937362       0.58188491 </v>
    <v>       0.62224589       0.90917118       0.51138172 </v>
    <v>       0.65407680       0.94800418       0.59090265 </v>
    <v>       0.53666690       0.34625219       0.55953269 </v>
    <v>       0.63255583       0.53972485       0.53265439 </v>
    <v>       0.57887438       0.61711950       0.53934374 </v>
    <v>       0.49057566       0.63721500       0.55627933 </v>
    <v>       0.72253350       0.12580111       0.52928859 </v>
    <v>       0.71475801       0.07056319       0.59753633 </v>
    <v>       0.71029476       0.04092553       0.51465779 </v>
    <v>       0.68168937       0.18401152       0.55977549 </v>
    <v>       0.90177414       0.58961057       0.53066715 </v>
    <v>       0.95672211       0.63593454       0.59948619 </v>
    <v>       0.98664819       0.66264657       0.51687063 </v>
    <v>       0.84358760       0.48994241       0.56038236 </v>
    <v>       0.94136675       0.39500322       0.52987093 </v>
   </varray>
  </structure>
  <varray name="forces" >
   <v>      -0.00106465      -0.00531049      -0.00244249 </v>
   <v>      -0.00215599       0.00255059       0.00027095 </v>
   <v>      -0.00016369       0.00189198       0.00069781 </v>
   <v>       0.00094919       0.00015160       0.00048763 </v>
   <v>      -0.00344638      -0.00149327      -0.00095453 </v>
   <v>      -0.00223044      -0.00195944       0.00007619 </v>
   <v>       0.00308430      -0.00853039       0.00390057 </v>
   <v>       0.00028111       0.00347293      -0.00115538 </v>
   <v>      -0.00383303      -0.00117267       0.00151623 </v>
   <v>       0.00163246      -0.00202590      -0.00017294 </v>
   <v>       0.00116393       0.00125507       0.00066001 </v>
   <v>       0.00253471      -0.00218809       0.00021178 </v>
   <v>       0.00520268      -0.00303960      -0.00062249 </v>
   <v>      -0.00048821       0.00220660      -0.00102267 </v>
   <v>      -0.00139985       0.00083999      -0.00045091 </v>
   <v>      -0.00266324      -0.00515374       0.00279265 </v>
   <v>       0.00140797       0.00057639       0.00394813 </v>
   <v>      -0.00095221       0.00238791       0.00048956 </v>
   <v>       0.00411981      -0.00297924       0.00030139 </v>
   <v>       0.00383382       0.00285091      -0.00028366 </v>
   <v>      -0.00210702       0.00193913      -0.00015687 </v>
   <v>       0.00224913      -0.00180452       0.00322657 </v>
   <v>       0.00023996      -0.00000956       0.00140790 </v>
   <v>      -0.00131219      -0.00038788       0.00220324 </v>
   <v>       0.00356554       0.00113794      -0.00009886 </v>
   <v>       0.00407548       0.00033929      -0.00077372 </v>
   <v>       0.00090772       0.00153594      -0.00095662 </v>
   <v>      -0.00335918       0.00078344       0.00029322 </v>
   <v>      -0.00471818       0.00337147      -0.00108348 </v>
   <v>      -0.00546996      -0.00088735      -0.00218929 </v>
   <v>      -0.00244520       0.00078012      -0.00042375 </v>
   <v>      -0.00227507      -0.00165498      -0.00111562 </v>
   <v>       0.00271850       0.00096165       0.00123404 </v>
   <v>      -0.00097352       0.00161778       0.00129047 </v>
   <v>      -0.00148588       0.00024854      -0.00126017 </v>
   <v>       0.00569019       0.00067318      -0.00268481 </v>
   <v>       0.00085744       0.00442885      -0.00521933 </v>
   <v>       0.00436514       0.00673814       0.00165376 </v>
   <v>      -0.00399287      -0.01123400      -0.00196726 </v>
   <v>       0.00322089       0.00009174      -0.00264501 </v>
   <v>      -0.00612994      -0.00037867       0.00867775 </v>
   <v>       0.00026652       0.00004109       0.00348340 </v>
   <v>       0.00208536      -0.00453027      -0.00168437 </v>
   <v>       0.00650912       0.00480119      -0.00261436 </v>
   <v>      -0.00136278       0.00024346       0.00039543 </v>
   <v>       0.00318360       0.00026685       0.00105226 </v>
   <v>      -0.00104893       0.00255595       0.00267876 </v>
   <v>      -0.00063666      -0.00532440      -0.00804300 </v>
   <v>      -0.00194002      -0.00014225      -0.00204184 </v>
   <v>      -0.00200105       0.00202534       0.00050570 </v>
   <v>       0.00061088      -0.00004112      -0.00020689 </v>
   <v>      -0.00034516       0.00018869      -0.00381703 </v>
   <v>       0.00139037      -0.00298283      -0.00086008 </v>
   <v>       0.00067858      -0.00174051       0.00308240 </v>
   <v>      -0.00359233      -0.00123422       0.00251163 </v>
   <v>       0.00009510      -0.00013182      -0.00037465 </v>
   <v>      -0.00206546       0.00107895      -0.00139372 </v>
   <v>      -0.00091760      -0.00142620      -0.00315494 </v>
   <v>      -0.00017707      -0.00122685      -0.00025315 </v>
   <v>      -0.00190352       0.00203248       0.00214017 </v>
   <v>      -0.00053610      -0.00038793       0.00051806 </v>
   <v>       0.00052696       0.00123587      -0.00210276 </v>
   <v>       0.00185441       0.00190106      -0.00106941 </v>
   <v>       0.00224111       0.00082497      -0.00029757 </v>
   <v>       0.00088628       0.00023956       0.00123007 </v>
   <v>      -0.00037549      -0.00397339       0.00227274 </v>
   <v>       0.00003974       0.00044574       0.00002917 </v>
   <v>      -0.00090682      -0.00077725      -0.00197594 </v>
   <v>      -0.00109272       0.00263348      -0.00160409 </v>
   <v>       0.00148384       0.00445465       0.00252076 </v>
   <v>       0.00196052      -0.00059019       0.00271151 </v>
   <v>       0.00117620       0.00250372      -0.00189457 </v>
   <v>       0.00172606       0.00080073      -0.00003326 </v>
   <v>      -0.00258388      -0.00034318       0.00150001 </v>
   <v>      -0.00086726       0.00186711       0.00139104 </v>
   <v>      -0.00190341       0.00055589       0.00028847 </v>
   <v>      -0.00044429       0.00075469       0.00212758 </v>
   <v>      -0.00144734       0.00077955      -0.00467754 </v>
  </varray>
  <varray name="stress" >
   <v>       0.00570173      -0.00006529      -0.00523224 </v>
   <v>      -0.00006529       0.00817664       0.00074929 </v>
   <v>      -0.00523224       0.00074929      -0.19146988 </v>
  </varray>
  <energy>
   <i name="e_fr_energy">   -532.49611818 </i>
   <i name="e_wo_entrp">   -532.49611818 </i>
   <i name="e_0_energy">     -0.00000000 </i>
  </energy>
  <time name="totalsc">  721.89  727.87</time>
  <eigenvalues>
   <array>
    <dimension dim="1">band</dimension>
    <dimension dim="2">kpoint</dimension>
    <dimension dim="3">spin</dimension>
    <field>eigene</field>
    <field>occ</field>
    <set>
     <set comment="spin 1">
      <set comment="kpoint 1">
       <r>  -25.5289    1.0000 </r>
       <r>  -25.4917    1.0000 </r>
       <r>  -23.6722    1.0000 </r>
       <r>  -23.6640    1.0000 </r>
       <r>  -23.5690    1.0000 </r>
       <r>  -23.5566    1.0000 </r>
       <r>  -22.5551    1.0000 </r>
       <r>  -22.4191    1.0000 </r>
       <r>  -21.7344    1.0000 </r>
       <r>  -21.7334    1.0000 </r>
       <r>  -21.4525    1.0000 </r>
       <r>  -21.4521    1.0000 </r>
       <r>  -21.3179    1.0000 </r>
       <r>  -21.1166    1.0000 </r>
       <r>  -21.1158    1.0000 </r>
       <r>  -19.4185    1.0000 </r>
       <r>  -19.4176    1.0000 </r>
       <r>  -19.3863    1.0000 </r>
       <r>  -19.2364    1.0000 </r>
       <r>  -19.2350    1.0000 </r>
       <r>  -19.1757    1.0000 </r>
       <r>  -17.4972    1.0000 </r>
       <r>  -17.4952    1.0000 </r>
       <r>  -17.4485    1.0000 </r>
       <r>  -17.4447    1.0000 </r>
       <r>  -17.3901    1.0000 </r>
       <r>  -16.9558    1.0000 </r>
       <r>  -16.4951    1.0000 </r>
       <r>  -16.4933    1.0000 </r>
       <r>  -16.3751    1.0000 </r>
       <r>  -16.3729    1.0000 </r>
       <r>  -16.3291    1.0000 </r>
       <r>  -15.2484    1.0000 </r>
       <r>  -15.1964    1.0000 </r>
       <r>  -15.1938    1.0000 </r>
       <r>  -14.3232    1.0000 </r>
       <r>  -14.1886    1.0000 </r>
       <r>  -14.1879    1.0000 </r>
       <r>  -14.1458    1.0000 </r>
       <r>  -13.7944    1.0000 </r>
       <r>  -13.7935    1.0000 </r>
       <r>  -13.4691    1.0000 </r>
       <r>  -13.2386    1.0000 </r>
       <r>  -13.0043    1.0000 </r>
       <r>  -12.9797    1.0000 </r>
       <r>  -12.9771    1.0000 </r>
       <r>  -12.3577    1.0000 </r>
       <r>  -12.2705    1.0000 </r>
       <r>  -12.2683    1.0000 </r>
       <r>  -11.7983    1.0000 </r>
       <r>  -11.7968    1.0000 </r>
       <r>  -11.6288    1.0000 </r>
       <r>  -11.2846    1.0000 </r>
       <r>  -11.2449    1.0000 </r>
       <r>  -11.2398    1.0000 </r>
       <r>  -11.2164    1.0000 </r>
       <r>  -11.0130    1.0000 </r>
       <r>  -10.8533    1.0000 </r>
       <r>  -10.8426    1.0000 </r>
       <r>  -10.5742    1.0000 </r>
       <r>  -10.5723    1.0000 </r>
       <r>  -10.5380    1.0000 </r>
       <r>  -10.5276    1.0000 </r>
       <r>  -10.5087    1.0000 </r>
       <r>  -10.5054    1.0000 </r>
       <r>   -9.9198    1.0000 </r>
       <r>   -9.9162    1.0000 </r>
       <r>   -9.7674    1.0000 </r>
       <r>   -9.7303    1.0000 </r>
       <r>   -9.7254    1.0000 </r>
       <r>   -9.7216    1.0000 </r>
       <r>   -9.6609    1.0000 </r>
       <r>   -9.6469    1.0000 </r>
       <r>   -9.4963    1.0000 </r>
       <r>   -9.4938    1.0000 </r>
       <r>   -9.4861    1.0000 </r>
       <r>   -9.4030    1.0000 </r>
       <r>   -9.3522    1.0000 </r>
       <r>   -9.3471    1.0000 </r>
       <r>   -9.2419    1.0000 </r>
       <r>   -9.2345    1.0000 </r>
       <r>   -9.0993    1.0000 </r>
       <r>   -8.9091    1.0000 </r>
       <r>   -8.8401    1.0000 </r>
       <r>   -8.8351    1.0000 </r>
       <r>   -8.6388    1.0000 </r>
       <r>   -8.6160    1.0000 </r>
       <r>   -8.6088    1.0000 </r>
       <r>   -8.5469    1.0000 </r>
       <r>   -8.3158    1.0000 </r>
       <r>   -8.2963    1.0000 </r>
       <r>   -8.2917    1.0000 </r>
       <r>   -8.1672    1.0000 </r>
       <r>   -7.9292    1.0000 </r>
       <r>   -7.9287    1.0000 </r>
       <r>   -7.9261    1.0000 </r>
       <r>   -7.5108    1.0000 </r>
       <r>   -7.5085    1.0000 </r>
       <r>   -7.3886    1.0000 </r>
       <r>   -6.8097    1.0000 </r>
       <r>   -6.8044    1.0000 </r>
       <r>   -6.0744    1.0000 </r>
       <r>   -6.0679    1.0000 </r>
       <r>   -6.0503    1.0000 </r>
       <r>   -5.9766    1.0000 </r>
       <r>   -5.9734    1.0000 </r>
       <r>   -5.9292    1.0000 </r>
       <r>   -5.8959    1.0000 </r>
       <r>   -5.8903    1.0000 </r>
       <r>   -5.8506    1.0000 </r>
       <r>   -5.8477    1.0000 </r>
       <r>   -5.8429    1.0000 </r>
       <r>   -5.7669    1.0000 </r>
       <r>   -5.7603    1.0000 </r>
       <r>   -5.7334    1.0000 </r>
       <r>   -5.6954    1.0000 </r>
       <r>   -5.6903    1.0000 </r>
       <r>   -3.3605    0.0000 </r>
       <r>   -3.3562    0.0000 </r>
       <r>   -2.8724    0.0000 </r>
       <r>   -2.3722    0.0000 </r>
       <r>   -2.3696    0.0000 </r>
       <r>   -1.5009    0.0000 </r>
       <r>   -1.1196    0.0000 </r>
       <r>   -1.1179    0.0000 </r>
       <r>   -1.0815    0.0000 </r>
       <r>   -0.8087    0.0000 </r>
       <r>   -0.8057    0.0000 </r>
       <r>   -0.2865    0.0000 </r>
       <r>   -0.1227    0.0000 </r>
       <r>   -0.1199    0.0000 </r>
       <r>    0.0553    0.0000 </r>
       <r>    0.0609    0.0000 </r>
       <r>    0.1240    0.0000 </r>
       <r>    0.1271    0.0000 </r>
       <r>    0.1531    0.0000 </r>
       <r>    0.2302    0.0000 </r>
       <r>    0.4034    0.0000 </r>
       <r>    0.4864    0.0000 </r>
       <r>    0.5674    0.0000 </r>
       <r>    0.6218    0.0000 </r>
       <r>    0.6240    0.0000 </r>
       <r>    0.6501    0.0000 </r>
       <r>    0.7143    0.0000 </r>
       <r>    0.7180    0.0000 </r>
       <r>    0.7901    0.0000 </r>
       <r>    0.7913    0.0000 </r>
       <r>    0.8182    0.0000 </r>
       <r>    0.9725    0.0000 </r>
       <r>    1.0070    0.0000 </r>
       <r>    1.0111    0.0000 </r>
       <r>    1.0136    0.0000 </r>
       <r>    1.0228    0.0000 </r>
       <r>    1.0273    0.0000 </r>
       <r>    1.0536    0.0000 </r>
       <r>    1.0579    0.0000 </r>
       <r>    1.0790    0.0000 </r>
       <r>    1.0862    0.0000 </r>
       <r>    1.1146    0.0000 </r>
       <r>    1.1191    0.0000 </r>
      </set>
      <set comment="kpoint 2">
       <r>  -25.5289    1.0000 </r>
       <r>  -25.4917    1.0000 </r>
       <r>  -23.6722    1.0000 </r>
       <r>  -23.6640    1.0000 </r>
       <r>  -23.5690    1.0000 </r>
       <r>  -23.5566    1.0000 </r>
       <r>  -22.5551    1.0000 </r>
       <r>  -22.4192    1.0000 </r>
       <r>  -21.7341    1.0000 </r>
       <r>  -21.7334    1.0000 </r>
       <r>  -21.4535    1.0000 </r>
       <r>  -21.4521    1.0000 </r>
       <r>  -21.3171    1.0000 </r>
       <r>  -21.1168    1.0000 </r>
       <r>  -21.1158    1.0000 </r>
       <r>  -19.4184    1.0000 </r>
       <r>  -19.4175    1.0000 </r>
       <r>  -19.3863    1.0000 </r>
       <r>  -19.2364    1.0000 </r>
       <r>  -19.2350    1.0000 </r>
       <r>  -19.1758    1.0000 </r>
       <r>  -17.4971    1.0000 </r>
       <r>  -17.4950    1.0000 </r>
       <r>  -17.4486    1.0000 </r>
       <r>  -17.4448    1.0000 </r>
       <r>  -17.3897    1.0000 </r>
       <r>  -16.9569    1.0000 </r>
       <r>  -16.4950    1.0000 </r>
       <r>  -16.4933    1.0000 </r>
       <r>  -16.3753    1.0000 </r>
       <r>  -16.3748    1.0000 </r>
       <r>  -16.3257    1.0000 </r>
       <r>  -15.2627    1.0000 </r>
       <r>  -15.1938    1.0000 </r>
       <r>  -15.1821    1.0000 </r>
       <r>  -14.3237    1.0000 </r>
       <r>  -14.1890    1.0000 </r>
       <r>  -14.1880    1.0000 </r>
       <r>  -14.1464    1.0000 </r>
       <r>  -13.7940    1.0000 </r>
       <r>  -13.7924    1.0000 </r>
       <r>  -13.4687    1.0000 </r>
       <r>  -13.2395    1.0000 </r>
       <r>  -13.0067    1.0000 </r>
       <r>  -12.9792    1.0000 </r>
       <r>  -12.9751    1.0000 </r>
       <r>  -12.3631    1.0000 </r>
       <r>  -12.2686    1.0000 </r>
       <r>  -12.2645    1.0000 </r>
       <r>  -11.7980    1.0000 </r>
       <r>  -11.7964    1.0000 </r>
       <r>  -11.6287    1.0000 </r>
       <r>  -11.2848    1.0000 </r>
       <r>  -11.2489    1.0000 </r>
       <r>  -11.2445    1.0000 </r>
       <r>  -11.2096    1.0000 </r>
       <r>  -11.0127    1.0000 </r>
       <r>  -10.8530    1.0000 </r>
       <r>  -10.8418    1.0000 </r>
       <r>  -10.5744    1.0000 </r>
       <r>  -10.5725    1.0000 </r>
       <r>  -10.5380    1.0000 </r>
       <r>  -10.5277    1.0000 </r>
       <r>  -10.5087    1.0000 </r>
       <r>  -10.5053    1.0000 </r>
       <r>   -9.9198    1.0000 </r>
       <r>   -9.9161    1.0000 </r>
       <r>   -9.7676    1.0000 </r>
       <r>   -9.7304    1.0000 </r>
       <r>   -9.7254    1.0000 </r>
       <r>   -9.7216    1.0000 </r>
       <r>   -9.6609    1.0000 </r>
       <r>   -9.6469    1.0000 </r>
       <r>   -9.4964    1.0000 </r>
       <r>   -9.4940    1.0000 </r>
       <r>   -9.4857    1.0000 </r>
       <r>   -9.4029    1.0000 </r>
       <r>   -9.3522    1.0000 </r>
       <r>   -9.3472    1.0000 </r>
       <r>   -9.2424    1.0000 </r>
       <r>   -9.2346    1.0000 </r>
       <r>   -9.0985    1.0000 </r>
       <r>   -8.9090    1.0000 </r>
       <r>   -8.8402    1.0000 </r>
       <r>   -8.8352    1.0000 </r>
       <r>   -8.6405    1.0000 </r>
       <r>   -8.6160    1.0000 </r>
       <r>   -8.6077    1.0000 </r>
       <r>   -8.5469    1.0000 </r>
       <r>   -8.3166    1.0000 </r>
       <r>   -8.2951    1.0000 </r>
       <r>   -8.2917    1.0000 </r>
       <r>   -8.1667    1.0000 </r>
       <r>   -7.9292    1.0000 </r>
       <r>   -7.9287    1.0000 </r>
       <r>   -7.9261    1.0000 </r>
       <r>   -7.5150    1.0000 </r>
       <r>   -7.5088    1.0000 </r>
       <r>   -7.3842    1.0000 </r>
       <r>   -6.8101    1.0000 </r>
       <r>   -6.8045    1.0000 </r>
       <r>   -6.0744    1.0000 </r>
       <r>   -6.0679    1.0000 </r>
       <r>   -6.0502    1.0000 </r>
       <r>   -5.9766    1.0000 </r>
       <r>   -5.9734    1.0000 </r>
       <r>   -5.9294    1.0000 </r>
       <r>   -5.8959    1.0000 </r>
       <r>   -5.8902    1.0000 </r>
       <r>   -5.8510    1.0000 </r>
       <r>   -5.8477    1.0000 </r>
       <r>   -5.8424    1.0000 </r>
       <r>   -5.7669    1.0000 </r>
       <r>   -5.7603    1.0000 </r>
       <r>   -5.7333    1.0000 </r>
       <r>   -5.6955    1.0000 </r>
       <r>   -5.6903    1.0000 </r>
       <r>   -3.3602    0.0000 </r>
       <r>   -3.3560    0.0000 </r>
       <r>   -2.8740    0.0000 </r>
       <r>   -2.3722    0.0000 </r>
       <r>   -2.3676    0.0000 </r>
       <r>   -1.5027    0.0000 </r>
       <r>   -1.1194    0.0000 </r>
       <r>   -1.1178    0.0000 </r>
       <r>   -1.0815    0.0000 </r>
       <r>   -0.8071    0.0000 </r>
       <r>   -0.8057    0.0000 </r>
       <r>   -0.2864    0.0000 </r>
       <r>   -0.1229    0.0000 </r>
       <r>   -0.1202    0.0000 </r>
       <r>    0.0519    0.0000 </r>
       <r>    0.0606    0.0000 </r>
       <r>    0.1235    0.0000 </r>
       <r>    0.1264    0.0000 </r>
       <r>    0.1565    0.0000 </r>
       <r>    0.2323    0.0000 </r>
       <r>    0.4035    0.0000 </r>
       <r>    0.4868    0.0000 </r>
       <r>    0.5658    0.0000 </r>
       <r>    0.6221    0.0000 </r>
       <r>    0.6243    0.0000 </r>
       <r>    0.6503    0.0000 </r>
       <r>    0.7140    0.0000 </r>
       <r>    0.7170    0.0000 </r>
       <r>    0.7896    0.0000 </r>
       <r>    0.7914    0.0000 </r>
       <r>    0.8201    0.0000 </r>
       <r>    0.9672    0.0000 </r>
       <r>    1.0053    0.0000 </r>
       <r>    1.0093    0.0000 </r>
       <r>    1.0131    0.0000 </r>
       <r>    1.0235    0.0000 </r>
       <r>    1.0274    0.0000 </r>
       <r>    1.0535    0.0000 </r>
       <r>    1.0568    0.0000 </r>
       <r>    1.0825    0.0000 </r>
       <r>    1.0894    0.0000 </r>
       <r>    1.1166    0.0000 </r>
       <r>    1.1215    0.0000 </r>
      </set>
      <set comment="kpoint 3">
       <r>  -25.5289    1.0000 </r>
       <r>  -25.4916    1.0000 </r>
       <r>  -23.6722    1.0000 </r>
       <r>  -23.6640    1.0000 </r>
       <r>  -23.5690    1.0000 </r>
       <r>  -23.5566    1.0000 </r>
       <r>  -22.5549    1.0000 </r>
       <r>  -22.4195    1.0000 </r>
       <r>  -21.7334    1.0000 </r>
       <r>  -21.7331    1.0000 </r>
       <r>  -21.4563    1.0000 </r>
       <r>  -21.4521    1.0000 </r>
       <r>  -21.3145    1.0000 </r>
       <r>  -21.1172    1.0000 </r>
       <r>  -21.1159    1.0000 </r>
       <r>  -19.4184    1.0000 </r>
       <r>  -19.4175    1.0000 </r>
       <r>  -19.3864    1.0000 </r>
       <r>  -19.2362    1.0000 </r>
       <r>  -19.2349    1.0000 </r>
       <r>  -19.1761    1.0000 </r>
       <r>  -17.4970    1.0000 </r>
       <r>  -17.4946    1.0000 </r>
       <r>  -17.4488    1.0000 </r>
       <r>  -17.4451    1.0000 </r>
       <r>  -17.3884    1.0000 </r>
       <r>  -16.9602    1.0000 </r>
       <r>  -16.4948    1.0000 </r>
       <r>  -16.4933    1.0000 </r>
       <r>  -16.3799    1.0000 </r>
       <r>  -16.3751    1.0000 </r>
       <r>  -16.3168    1.0000 </r>
       <r>  -15.2894    1.0000 </r>
       <r>  -15.1938    1.0000 </r>
       <r>  -15.1558    1.0000 </r>
       <r>  -14.3251    1.0000 </r>
       <r>  -14.1905    1.0000 </r>
       <r>  -14.1881    1.0000 </r>
       <r>  -14.1483    1.0000 </r>
       <r>  -13.7936    1.0000 </r>
       <r>  -13.7882    1.0000 </r>
       <r>  -13.4677    1.0000 </r>
       <r>  -13.2422    1.0000 </r>
       <r>  -13.0122    1.0000 </r>
       <r>  -12.9791    1.0000 </r>
       <r>  -12.9693    1.0000 </r>
       <r>  -12.3763    1.0000 </r>
       <r>  -12.2689    1.0000 </r>
       <r>  -12.2503    1.0000 </r>
       <r>  -11.7972    1.0000 </r>
       <r>  -11.7951    1.0000 </r>
       <r>  -11.6286    1.0000 </r>
       <r>  -11.2858    1.0000 </r>
       <r>  -11.2636    1.0000 </r>
       <r>  -11.2467    1.0000 </r>
       <r>  -11.1984    1.0000 </r>
       <r>  -11.0117    1.0000 </r>
       <r>  -10.8520    1.0000 </r>
       <r>  -10.8392    1.0000 </r>
       <r>  -10.5748    1.0000 </r>
       <r>  -10.5731    1.0000 </r>
       <r>  -10.5380    1.0000 </r>
       <r>  -10.5282    1.0000 </r>
       <r>  -10.5087    1.0000 </r>
       <r>  -10.5049    1.0000 </r>
       <r>   -9.9198    1.0000 </r>
       <r>   -9.9157    1.0000 </r>
       <r>   -9.7682    1.0000 </r>
       <r>   -9.7307    1.0000 </r>
       <r>   -9.7254    1.0000 </r>
       <r>   -9.7216    1.0000 </r>
       <r>   -9.6607    1.0000 </r>
       <r>   -9.6469    1.0000 </r>
       <r>   -9.4966    1.0000 </r>
       <r>   -9.4944    1.0000 </r>
       <r>   -9.4849    1.0000 </r>
       <r>   -9.4027    1.0000 </r>
       <r>   -9.3522    1.0000 </r>
       <r>   -9.3472    1.0000 </r>
       <r>   -9.2441    1.0000 </r>
       <r>   -9.2347    1.0000 </r>
       <r>   -9.0961    1.0000 </r>
       <r>   -8.9087    1.0000 </r>
       <r>   -8.8406    1.0000 </r>
       <r>   -8.8353    1.0000 </r>
       <r>   -8.6448    1.0000 </r>
       <r>   -8.6160    1.0000 </r>
       <r>   -8.6051    1.0000 </r>
       <r>   -8.5469    1.0000 </r>
       <r>   -8.3187    1.0000 </r>
       <r>   -8.2922    1.0000 </r>
       <r>   -8.2915    1.0000 </r>
       <r>   -8.1651    1.0000 </r>
       <r>   -7.9293    1.0000 </r>
       <r>   -7.9288    1.0000 </r>
       <r>   -7.9260    1.0000 </r>
       <r>   -7.5267    1.0000 </r>
       <r>   -7.5089    1.0000 </r>
       <r>   -7.3726    1.0000 </r>
       <r>   -6.8114    1.0000 </r>
       <r>   -6.8047    1.0000 </r>
       <r>   -6.0745    1.0000 </r>
       <r>   -6.0682    1.0000 </r>
       <r>   -6.0500    1.0000 </r>
       <r>   -5.9766    1.0000 </r>
       <r>   -5.9733    1.0000 </r>
       <r>   -5.9299    1.0000 </r>
       <r>   -5.8958    1.0000 </r>
       <r>   -5.8899    1.0000 </r>
       <r>   -5.8521    1.0000 </r>
       <r>   -5.8477    1.0000 </r>
       <r>   -5.8410    1.0000 </r>
       <r>   -5.7668    1.0000 </r>
       <r>   -5.7602    1.0000 </r>
       <r>   -5.7333    1.0000 </r>
       <r>   -5.6957    1.0000 </r>
       <r>   -5.6904    1.0000 </r>
       <r>   -3.3595    0.0000 </r>
       <r>   -3.3552    0.0000 </r>
       <r>   -2.8787    0.0000 </r>
       <r>   -2.3722    0.0000 </r>
       <r>   -2.3620    0.0000 </r>
       <r>   -1.5081    0.0000 </r>
       <r>   -1.1192    0.0000 </r>
       <r>   -1.1176    0.0000 </r>
       <r>   -1.0816    0.0000 </r>
       <r>   -0.8058    0.0000 </r>
       <r>   -0.8024    0.0000 </r>
       <r>   -0.2858    0.0000 </r>
       <r>   -0.1237    0.0000 </r>
       <r>   -0.1211    0.0000 </r>
       <r>    0.0423    0.0000 </r>
       <r>    0.0603    0.0000 </r>
       <r>    0.1210    0.0000 </r>
       <r>    0.1260    0.0000 </r>
       <r>    0.1651    0.0000 </r>
       <r>    0.2380    0.0000 </r>
       <r>    0.4037    0.0000 </r>
       <r>    0.4879    0.0000 </r>
       <r>    0.5616    0.0000 </r>
       <r>    0.6212    0.0000 </r>
       <r>    0.6264    0.0000 </r>
       <r>    0.6511    0.0000 </r>
       <r>    0.7126    0.0000 </r>
       <r>    0.7151    0.0000 </r>
       <r>    0.7872    0.0000 </r>
       <r>    0.7931    0.0000 </r>
       <r>    0.8253    0.0000 </r>
       <r>    0.9552    0.0000 </r>
       <r>    0.9982    0.0000 </r>
       <r>    1.0030    0.0000 </r>
       <r>    1.0128    0.0000 </r>
       <r>    1.0220    0.0000 </r>
       <r>    1.0297    0.0000 </r>
       <r>    1.0526    0.0000 </r>
       <r>    1.0591    0.0000 </r>
       <r>    1.0888    0.0000 </r>
       <r>    1.0970    0.0000 </r>
       <r>    1.1230    0.0000 </r>
       <r>    1.1286    0.0000 </r>
      </set>
      <set comment="kpoint 4">
       <r>  -25.5289    1.0000 </r>
       <r>  -25.4917    1.0000 </r>
       <r>  -23.6722    1.0000 </r>
       <r>  -23.6640    1.0000 </r>
       <r>  -23.5690    1.0000 </r>
       <r>  -23.5566    1.0000 </r>
       <r>  -22.5545    1.0000 </r>
       <r>  -22.4200    1.0000 </r>
       <r>  -21.7334    1.0000 </r>
       <r>  -21.7316    1.0000 </r>
       <r>  -21.4608    1.0000 </r>
       <r>  -21.4521    1.0000 </r>
       <r>  -21.3105    1.0000 </r>
       <r>  -21.1181    1.0000 </r>
       <r>  -21.1159    1.0000 </r>
       <r>  -19.4183    1.0000 </r>
       <r>  -19.4173    1.0000 </r>
       <r>  -19.3866    1.0000 </r>
       <r>  -19.2360    1.0000 </r>
       <r>  -19.2349    1.0000 </r>
       <r>  -19.1766    1.0000 </r>
       <r>  -17.4967    1.0000 </r>
       <r>  -17.4939    1.0000 </r>
       <r>  -17.4491    1.0000 </r>
       <r>  -17.4455    1.0000 </r>
       <r>  -17.3862    1.0000 </r>
       <r>  -16.9657    1.0000 </r>
       <r>  -16.4945    1.0000 </r>
       <r>  -16.4932    1.0000 </r>
       <r>  -16.3857    1.0000 </r>
       <r>  -16.3750    1.0000 </r>
       <r>  -16.3045    1.0000 </r>
       <r>  -15.3187    1.0000 </r>
       <r>  -15.1938    1.0000 </r>
       <r>  -15.1272    1.0000 </r>
       <r>  -14.3275    1.0000 </r>
       <r>  -14.1931    1.0000 </r>
       <r>  -14.1884    1.0000 </r>
       <r>  -14.1511    1.0000 </r>
       <r>  -13.7930    1.0000 </r>
       <r>  -13.7814    1.0000 </r>
       <r>  -13.4659    1.0000 </r>
       <r>  -13.2466    1.0000 </r>
       <r>  -13.0188    1.0000 </r>
       <r>  -12.9792    1.0000 </r>
       <r>  -12.9617    1.0000 </r>
       <r>  -12.3931    1.0000 </r>
       <r>  -12.2695    1.0000 </r>
       <r>  -12.2317    1.0000 </r>
       <r>  -11.7963    1.0000 </r>
       <r>  -11.7925    1.0000 </r>
       <r>  -11.6284    1.0000 </r>
       <r>  -11.2886    1.0000 </r>
       <r>  -11.2795    1.0000 </r>
       <r>  -11.2495    1.0000 </r>
       <r>  -11.1875    1.0000 </r>
       <r>  -11.0100    1.0000 </r>
       <r>  -10.8504    1.0000 </r>
       <r>  -10.8351    1.0000 </r>
       <r>  -10.5755    1.0000 </r>
       <r>  -10.5740    1.0000 </r>
       <r>  -10.5380    1.0000 </r>
       <r>  -10.5290    1.0000 </r>
       <r>  -10.5087    1.0000 </r>
       <r>  -10.5043    1.0000 </r>
       <r>   -9.9198    1.0000 </r>
       <r>   -9.9150    1.0000 </r>
       <r>   -9.7692    1.0000 </r>
       <r>   -9.7312    1.0000 </r>
       <r>   -9.7254    1.0000 </r>
       <r>   -9.7215    1.0000 </r>
       <r>   -9.6605    1.0000 </r>
       <r>   -9.6469    1.0000 </r>
       <r>   -9.4971    1.0000 </r>
       <r>   -9.4948    1.0000 </r>
       <r>   -9.4836    1.0000 </r>
       <r>   -9.4023    1.0000 </r>
       <r>   -9.3522    1.0000 </r>
       <r>   -9.3473    1.0000 </r>
       <r>   -9.2467    1.0000 </r>
       <r>   -9.2347    1.0000 </r>
       <r>   -9.0923    1.0000 </r>
       <r>   -8.9083    1.0000 </r>
       <r>   -8.8414    1.0000 </r>
       <r>   -8.8354    1.0000 </r>
       <r>   -8.6510    1.0000 </r>
       <r>   -8.6160    1.0000 </r>
       <r>   -8.6019    1.0000 </r>
       <r>   -8.5467    1.0000 </r>
       <r>   -8.3210    1.0000 </r>
       <r>   -8.2917    1.0000 </r>
       <r>   -8.2878    1.0000 </r>
       <r>   -8.1624    1.0000 </r>
       <r>   -7.9293    1.0000 </r>
       <r>   -7.9288    1.0000 </r>
       <r>   -7.9259    1.0000 </r>
       <r>   -7.5430    1.0000 </r>
       <r>   -7.5089    1.0000 </r>
       <r>   -7.3566    1.0000 </r>
       <r>   -6.8138    1.0000 </r>
       <r>   -6.8049    1.0000 </r>
       <r>   -6.0745    1.0000 </r>
       <r>   -6.0685    1.0000 </r>
       <r>   -6.0497    1.0000 </r>
       <r>   -5.9767    1.0000 </r>
       <r>   -5.9732    1.0000 </r>
       <r>   -5.9308    1.0000 </r>
       <r>   -5.8956    1.0000 </r>
       <r>   -5.8894    1.0000 </r>
       <r>   -5.8533    1.0000 </r>
       <r>   -5.8477    1.0000 </r>
       <r>   -5.8392    1.0000 </r>
       <r>   -5.7667    1.0000 </r>
       <r>   -5.7600    1.0000 </r>
       <r>   -5.7331    1.0000 </r>
       <r>   -5.6961    1.0000 </r>
       <r>   -5.6906    1.0000 </r>
       <r>   -3.3589    0.0000 </r>
       <r>   -3.3535    0.0000 </r>
       <r>   -2.8862    0.0000 </r>
       <r>   -2.3723    0.0000 </r>
       <r>   -2.3528    0.0000 </r>
       <r>   -1.5168    0.0000 </r>
       <r>   -1.1189    0.0000 </r>
       <r>   -1.1170    0.0000 </r>
       <r>   -1.0818    0.0000 </r>
       <r>   -0.8058    0.0000 </r>
       <r>   -0.7947    0.0000 </r>
       <r>   -0.2849    0.0000 </r>
       <r>   -0.1250    0.0000 </r>
       <r>   -0.1226    0.0000 </r>
       <r>    0.0283    0.0000 </r>
       <r>    0.0601    0.0000 </r>
       <r>    0.1167    0.0000 </r>
       <r>    0.1266    0.0000 </r>
       <r>    0.1768    0.0000 </r>
       <r>    0.2466    0.0000 </r>
       <r>    0.4040    0.0000 </r>
       <r>    0.4896    0.0000 </r>
       <r>    0.5561    0.0000 </r>
       <r>    0.6189    0.0000 </r>
       <r>    0.6292    0.0000 </r>
       <r>    0.6525    0.0000 </r>
       <r>    0.7088    0.0000 </r>
       <r>    0.7139    0.0000 </r>
       <r>    0.7838    0.0000 </r>
       <r>    0.7960    0.0000 </r>
       <r>    0.8323    0.0000 </r>
       <r>    0.9408    0.0000 </r>
       <r>    0.9865    0.0000 </r>
       <r>    0.9960    0.0000 </r>
       <r>    1.0102    0.0000 </r>
       <r>    1.0164    0.0000 </r>
       <r>    1.0338    0.0000 </r>
       <r>    1.0531    0.0000 </r>
       <r>    1.0663    0.0000 </r>
       <r>    1.0935    0.0000 </r>
       <r>    1.1062    0.0000 </r>
       <r>    1.1333    0.0000 </r>
       <r>    1.1392    0.0000 </r>
      </set>
      <set comment="kpoint 5">
       <r>  -25.5289    1.0000 </r>
       <r>  -25.4917    1.0000 </r>
       <r>  -23.6722    1.0000 </r>
       <r>  -23.6640    1.0000 </r>
       <r>  -23.5690    1.0000 </r>
       <r>  -23.5566    1.0000 </r>
       <r>  -22.5541    1.0000 </r>
       <r>  -22.4207    1.0000 </r>
       <r>  -21.7334    1.0000 </r>
       <r>  -21.7295    1.0000 </r>
       <r>  -21.4667    1.0000 </r>
       <r>  -21.4521    1.0000 </r>
       <r>  -21.3053    1.0000 </r>
       <r>  -21.1192    1.0000 </r>
       <r>  -21.1159    1.0000 </r>
       <r>  -19.4182    1.0000 </r>
       <r>  -19.4170    1.0000 </r>
       <r>  -19.3868    1.0000 </r>
       <r>  -19.2357    1.0000 </r>
       <r>  -19.2348    1.0000 </r>
       <r>  -19.1772    1.0000 </r>
       <r>  -17.4964    1.0000 </r>
       <r>  -17.4930    1.0000 </r>
       <r>  -17.4496    1.0000 </r>
       <r>  -17.4461    1.0000 </r>
       <r>  -17.3832    1.0000 </r>
       <r>  -16.9732    1.0000 </r>
       <r>  -16.4942    1.0000 </r>
       <r>  -16.4930    1.0000 </r>
       <r>  -16.3913    1.0000 </r>
       <r>  -16.3750    1.0000 </r>
       <r>  -16.2898    1.0000 </r>
       <r>  -15.3488    1.0000 </r>
       <r>  -15.1938    1.0000 </r>
       <r>  -15.0981    1.0000 </r>
       <r>  -14.3310    1.0000 </r>
       <r>  -14.1966    1.0000 </r>
       <r>  -14.1887    1.0000 </r>
       <r>  -14.1543    1.0000 </r>
       <r>  -13.7923    1.0000 </r>
       <r>  -13.7722    1.0000 </r>
       <r>  -13.4636    1.0000 </r>
       <r>  -13.2526    1.0000 </r>
       <r>  -13.0260    1.0000 </r>
       <r>  -12.9794    1.0000 </r>
       <r>  -12.9534    1.0000 </r>
       <r>  -12.4112    1.0000 </r>
       <r>  -12.2704    1.0000 </r>
       <r>  -12.2111    1.0000 </r>
       <r>  -11.7950    1.0000 </r>
       <r>  -11.7889    1.0000 </r>
       <r>  -11.6282    1.0000 </r>
       <r>  -11.3021    1.0000 </r>
       <r>  -11.2869    1.0000 </r>
       <r>  -11.2531    1.0000 </r>
       <r>  -11.1779    1.0000 </r>
       <r>  -11.0076    1.0000 </r>
       <r>  -10.8482    1.0000 </r>
       <r>  -10.8296    1.0000 </r>
       <r>  -10.5766    1.0000 </r>
       <r>  -10.5753    1.0000 </r>
       <r>  -10.5380    1.0000 </r>
       <r>  -10.5300    1.0000 </r>
       <r>  -10.5088    1.0000 </r>
       <r>  -10.5035    1.0000 </r>
       <r>   -9.9199    1.0000 </r>
       <r>   -9.9141    1.0000 </r>
       <r>   -9.7707    1.0000 </r>
       <r>   -9.7318    1.0000 </r>
       <r>   -9.7254    1.0000 </r>
       <r>   -9.7215    1.0000 </r>
       <r>   -9.6602    1.0000 </r>
       <r>   -9.6469    1.0000 </r>
       <r>   -9.4977    1.0000 </r>
       <r>   -9.4950    1.0000 </r>
       <r>   -9.4821    1.0000 </r>
       <r>   -9.4017    1.0000 </r>
       <r>   -9.3523    1.0000 </r>
       <r>   -9.3474    1.0000 </r>
       <r>   -9.2503    1.0000 </r>
       <r>   -9.2348    1.0000 </r>
       <r>   -9.0872    1.0000 </r>
       <r>   -8.9077    1.0000 </r>
       <r>   -8.8425    1.0000 </r>
       <r>   -8.8356    1.0000 </r>
       <r>   -8.6582    1.0000 </r>
       <r>   -8.6159    1.0000 </r>
       <r>   -8.5985    1.0000 </r>
       <r>   -8.5466    1.0000 </r>
       <r>   -8.3231    1.0000 </r>
       <r>   -8.2917    1.0000 </r>
       <r>   -8.2834    1.0000 </r>
       <r>   -8.1585    1.0000 </r>
       <r>   -7.9294    1.0000 </r>
       <r>   -7.9289    1.0000 </r>
       <r>   -7.9258    1.0000 </r>
       <r>   -7.5620    1.0000 </r>
       <r>   -7.5088    1.0000 </r>
       <r>   -7.3382    1.0000 </r>
       <r>   -6.8172    1.0000 </r>
       <r>   -6.8050    1.0000 </r>
       <r>   -6.0746    1.0000 </r>
       <r>   -6.0689    1.0000 </r>
       <r>   -6.0493    1.0000 </r>
       <r>   -5.9767    1.0000 </r>
       <r>   -5.9731    1.0000 </r>
       <r>   -5.9319    1.0000 </r>
       <r>   -5.8954    1.0000 </r>
       <r>   -5.8887    1.0000 </r>
       <r>   -5.8546    1.0000 </r>
       <r>   -5.8477    1.0000 </r>
       <r>   -5.8371    1.0000 </r>
       <r>   -5.7666    1.0000 </r>
       <r>   -5.7598    1.0000 </r>
       <r>   -5.7330    1.0000 </r>
       <r>   -5.6966    1.0000 </r>
       <r>   -5.6908    1.0000 </r>
       <r>   -3.3585    0.0000 </r>
       <r>   -3.3506    0.0000 </r>
       <r>   -2.8962    0.0000 </r>
       <r>   -2.3723    0.0000 </r>
       <r>   -2.3405    0.0000 </r>
       <r>   -1.5287    0.0000 </r>
       <r>   -1.1187    0.0000 </r>
[...]
       <r>   -26.0843     0.0000     0.0000 </r>
       <r>   -25.9858     0.0000     0.0000 </r>
       <r>   -25.8873     0.0000     0.0000 </r>
       <r>   -25.7887     0.0000     0.0000 </r>
       <r>   -25.6902     0.0000     0.0000 </r>
       <r>   -25.5916     0.0000     0.0000 </r>
       <r>   -25.4931    28.7874     2.8367 </r>
       <r>   -25.3946     0.0000     4.0000 </r>
       <r>   -25.2960     0.0000     4.0000 </r>
       <r>   -25.1975     0.0000     4.0000 </r>
       <r>   -25.0990     0.0000     4.0000 </r>
       <r>   -25.0004     0.0000     4.0000 </r>
       <r>   -24.9019     0.0000     4.0000 </r>
       <r>   -24.8033     0.0000     4.0000 </r>
       <r>   -24.7048     0.0000     4.0000 </r>
       <r>   -24.6063     0.0000     4.0000 </r>
       <r>   -24.5077     0.0000     4.0000 </r>
       <r>   -24.4092     0.0000     4.0000 </r>
       <r>   -24.3106     0.0000     4.0000 </r>
       <r>   -24.2121     0.0000     4.0000 </r>
       <r>   -24.1136     0.0000     4.0000 </r>
       <r>   -24.0150     0.0000     4.0000 </r>
       <r>   -23.9165     0.0000     4.0000 </r>
       <r>   -23.8179     0.0000     4.0000 </r>
       <r>   -23.7194     0.0000     4.0000 </r>
       <r>   -23.6209    40.5927     8.0000 </r>
       <r>   -23.5223    40.5927    12.0000 </r>
       <r>   -23.4238     0.0000    12.0000 </r>
       <r>   -23.3252     0.0000    12.0000 </r>
       <r>   -23.2267     0.0000    12.0000 </r>
       <r>   -23.1282     0.0000    12.0000 </r>
       <r>   -23.0296     0.0000    12.0000 </r>
       <r>   -22.9311     0.0000    12.0000 </r>
       <r>   -22.8325     0.0000    12.0000 </r>
       <r>   -22.7340     0.0000    12.0000 </r>
       <r>   -22.6355     0.0000    12.0000 </r>
       <r>   -22.5369    18.0884    13.7824 </r>
       <r>   -22.4384     4.7384    14.4669 </r>
       <r>   -22.3398     2.0226    16.0000 </r>
       <r>   -22.2413     0.0000    16.0000 </r>
       <r>   -22.1428     0.0000    16.0000 </r>
       <r>   -22.0442     0.0000    16.0000 </r>
       <r>   -21.9457     0.0000    16.0000 </r>
       <r>   -21.8471     0.0000    16.0000 </r>
       <r>   -21.7486     0.3859    16.0380 </r>
       <r>   -21.6501    14.0167    19.6481 </r>
       <r>   -21.5515    11.2180    21.1054 </r>
       <r>   -21.4530    16.0711    22.8171 </r>
       <r>   -21.3544     0.0000    24.0000 </r>
       <r>   -21.2559     7.2179    24.7112 </r>
       <r>   -21.1574    19.5591    26.7941 </r>
       <r>   -21.0588    28.0744    30.0000 </r>
       <r>   -20.9603     0.0000    30.0000 </r>
       <r>   -20.8617     0.0000    30.0000 </r>
       <r>   -20.7632     0.0000    30.0000 </r>
       <r>   -20.6647     0.0000    30.0000 </r>
       <r>   -20.5661     0.0000    30.0000 </r>
       <r>   -20.4676     0.0000    30.0000 </r>
       <r>   -20.3690     0.0000    30.0000 </r>
       <r>   -20.2705     0.0000    30.0000 </r>
       <r>   -20.1720     0.0000    30.0000 </r>
       <r>   -20.0734     0.0000    30.0000 </r>
       <r>   -19.9749     0.0000    30.0000 </r>
       <r>   -19.8763     0.0000    30.0000 </r>
       <r>   -19.7778     0.0000    30.0000 </r>
       <r>   -19.6793     0.0000    30.0000 </r>
       <r>   -19.5807     0.0000    30.0000 </r>
       <r>   -19.4822     0.0000    30.0000 </r>
       <r>   -19.3836    57.2786    35.6442 </r>
       <r>   -19.2851     0.0000    36.0000 </r>
       <r>   -19.1866    52.3746    41.1610 </r>
       <r>   -19.0880     0.0000    42.0000 </r>
       <r>   -18.9895     0.0000    42.0000 </r>
       <r>   -18.8909     0.0000    42.0000 </r>
       <r>   -18.7924     0.0000    42.0000 </r>
       <r>   -18.6939     0.0000    42.0000 </r>
       <r>   -18.5953     0.0000    42.0000 </r>
       <r>   -18.4968     0.0000    42.0000 </r>
       <r>   -18.3982     0.0000    42.0000 </r>
       <r>   -18.2997     0.0000    42.0000 </r>
       <r>   -18.2012     0.0000    42.0000 </r>
       <r>   -18.1026     0.0000    42.0000 </r>
       <r>   -18.0041     0.0000    42.0000 </r>
       <r>   -17.9055     0.0000    42.0000 </r>
       <r>   -17.8070     0.0000    42.0000 </r>
       <r>   -17.7085     0.0000    42.0000 </r>
       <r>   -17.6099     0.0000    42.0000 </r>
       <r>   -17.5114     0.1411    42.0139 </r>
       <r>   -17.4128    71.0247    50.0001 </r>
       <r>   -17.3143     9.1505    50.9018 </r>
       <r>   -17.2158     9.8098    52.0000 </r>
       <r>   -17.1172    10.5363    53.0383 </r>
       <r>   -17.0187     3.3921    53.4676 </r>
       <r>   -16.9201     4.3975    54.0000 </r>
       <r>   -16.8216     0.0000    54.0000 </r>
       <r>   -16.7231     0.0000    54.0000 </r>
       <r>   -16.6245     0.0000    54.0000 </r>
       <r>   -16.5260     0.0001    54.0000 </r>
       <r>   -16.4274    44.7253    58.4072 </r>
       <r>   -16.3289    26.2747    62.0560 </r>
       <r>   -16.2304     2.9398    62.4897 </r>
       <r>   -16.1318     2.1234    62.7759 </r>
       <r>   -16.0333     3.8592    63.1805 </r>
       <r>   -15.9347     5.4114    64.0000 </r>
       <r>   -15.8362     0.0000    64.0000 </r>
       <r>   -15.7377     3.9082    64.3851 </r>
       <r>   -15.6391     5.5921    65.0845 </r>
       <r>   -15.5406     1.8641    65.3170 </r>
       <r>   -15.4420     1.5670    65.5211 </r>
       <r>   -15.3435     1.6345    65.7277 </r>
       <r>   -15.2450     2.1521    65.9787 </r>
       <r>   -15.1464    22.1346    68.1811 </r>
       <r>   -15.0479     1.8760    68.3850 </r>
       <r>   -14.9493     1.8011    68.6108 </r>
       <r>   -14.8508     2.2690    68.8570 </r>
       <r>   -14.7523     6.3443    69.5585 </r>
       <r>   -14.6537     2.7039    70.0000 </r>
       <r>   -14.5552     0.0000    70.0000 </r>
       <r>   -14.4566    10.3906    71.0239 </r>
       <r>   -14.3581     3.5032    71.4785 </r>
       <r>   -14.2596     3.7219    72.0001 </r>
       <r>   -14.1610    56.5581    77.5734 </r>
       <r>   -14.0625     0.0000    78.0000 </r>
       <r>   -13.9639     0.0000    78.0000 </r>
       <r>   -13.8654     0.0000    78.0000 </r>
       <r>   -13.7669    20.5389    80.0239 </r>
       <r>   -13.6683     3.3066    80.7260 </r>
       <r>   -13.5698     5.2834    81.3206 </r>
       <r>   -13.4712     7.9884    82.4207 </r>
       <r>   -13.3727    11.0520    84.1561 </r>
       <r>   -13.2742     5.0010    85.5597 </r>
       <r>   -13.1756     3.0440    86.0000 </r>
       <r>   -13.0771    13.1164    87.2925 </r>
       <r>   -12.9785    22.0586    89.6071 </r>
       <r>   -12.8800     5.8787    90.8127 </r>
       <r>   -12.7815    10.1464    92.0000 </r>
       <r>   -12.6829     0.0000    92.0000 </r>
       <r>   -12.5844     8.2472    92.8127 </r>
       <r>   -12.4858     3.9410    93.4551 </r>
       <r>   -12.3873     3.0500    93.8006 </r>
       <r>   -12.2888     8.3317    94.6877 </r>
       <r>   -12.1902     5.1686    96.3433 </r>
       <r>   -12.0917     2.6340    96.6264 </r>
       <r>   -11.9931     3.8316    97.0443 </r>
       <r>   -11.8946     4.7711    97.8035 </r>
       <r>   -11.7961     9.4878    98.8350 </r>
       <r>   -11.6975    12.9376   101.0418 </r>
       <r>   -11.5990    26.1348   103.8754 </r>
       <r>   -11.5004     7.4760   105.1368 </r>
       <r>   -11.4019     7.5288   105.9419 </r>
       <r>   -11.3034     7.7902   107.2344 </r>
       <r>   -11.2048    25.0320   110.1337 </r>
       <r>   -11.1063    15.2184   112.0000 </r>
       <r>   -11.0077     2.5686   112.2531 </r>
       <r>   -10.9092    10.5896   113.6103 </r>
       <r>   -10.8107    19.0823   115.6806 </r>
       <r>   -10.7121    18.1887   117.9926 </r>
       <r>   -10.6136     7.7483   118.7635 </r>
       <r>   -10.5150    69.5413   126.6537 </r>
       <r>   -10.4165    13.1752   130.0000 </r>
       <r>   -10.3180     0.0000   130.0000 </r>
       <r>   -10.2194     0.0000   130.0000 </r>
       <r>   -10.1209     0.0000   130.0000 </r>
       <r>   -10.0223     0.0000   130.0000 </r>
       <r>    -9.9238     6.8869   130.6786 </r>
       <r>    -9.8253    14.6771   134.0798 </r>
       <r>    -9.7267    40.4925   138.9902 </r>
       <r>    -9.6282    40.3770   145.9787 </r>
       <r>    -9.5297     0.0032   146.0003 </r>
       <r>    -9.4311    60.8860   152.0000 </r>
       <r>    -9.3326    60.6114   157.9726 </r>
       <r>    -9.2340    32.4700   161.1999 </r>
       <r>    -9.1355     0.0000   162.0000 </r>
       <r>    -9.0370     6.8689   162.6769 </r>
       <r>    -8.9384    11.7092   163.9539 </r>
       <r>    -8.8399    43.3766   168.4745 </r>
       <r>    -8.7413    10.7785   171.0621 </r>
       <r>    -8.6428     6.5839   171.8822 </r>
       <r>    -8.5443    51.4428   177.0692 </r>
       <r>    -8.4457     0.0000   178.0000 </r>
       <r>    -8.3472     0.0074   178.0007 </r>
       <r>    -8.2486    60.8416   183.9961 </r>
       <r>    -8.1501     3.7114   184.3657 </r>
       <r>    -8.0516     4.1977   184.9137 </r>
       <r>    -7.9530    10.5116   186.0359 </r>
       <r>    -7.8545    54.9137   192.3799 </r>
       <r>    -7.7559     6.1661   193.1411 </r>
       <r>    -7.6574     2.4008   193.4366 </r>
       <r>    -7.5589     2.3119   193.7278 </r>
       <r>    -7.4603    22.3260   196.0000 </r>
       <r>    -7.3618     2.0343   196.2005 </r>
       <r>    -7.2632     2.4731   196.5104 </r>
       <r>    -7.1647     2.6623   196.8290 </r>
       <r>    -7.0662     8.6906   197.7232 </r>
       <r>    -6.9676     0.2189   198.0216 </r>
       <r>    -6.8691     9.7769   199.2635 </r>
       <r>    -6.7705    26.3847   202.0000 </r>
       <r>    -6.6720     0.0000   202.0000 </r>
       <r>    -6.5735     0.0000   202.0000 </r>
       <r>    -6.4749     0.0000   202.0000 </r>
       <r>    -6.3764     0.0000   202.0000 </r>
       <r>    -6.2778     0.0000   202.0000 </r>
       <r>    -6.1793     0.0000   202.0000 </r>
       <r>    -6.0808     8.4786   202.8355 </r>
       <r>    -5.9822    26.4671   208.6081 </r>
       <r>    -5.8837    47.9615   216.5934 </r>
       <r>    -5.7851    60.9739   224.0115 </r>
       <r>    -5.6866    86.4804   233.6569 </r>
       <r>    -5.5881     0.0000   234.0000 </r>
       <r>    -5.4895     0.0000   234.0000 </r>
       <r>    -5.3910     0.0000   234.0000 </r>
       <r>    -5.2924     0.0000   234.0000 </r>
       <r>    -5.1939     0.0000   234.0000 </r>
       <r>    -5.0954     0.0000   234.0000 </r>
       <r>    -4.9968     0.0000   234.0000 </r>
       <r>    -4.8983     0.0000   234.0000 </r>
       <r>    -4.7997     0.0000   234.0000 </r>
       <r>    -4.7012     0.0000   234.0000 </r>
       <r>    -4.6027     0.0000   234.0000 </r>
       <r>    -4.5041     0.0000   234.0000 </r>
       <r>    -4.4056     0.0000   234.0000 </r>
       <r>    -4.3070     0.0000   234.0000 </r>
       <r>    -4.2085     0.0000   234.0000 </r>
       <r>    -4.1100     0.0000   234.0000 </r>
       <r>    -4.0114     0.0000   234.0000 </r>
       <r>    -3.9129     0.0000   234.0000 </r>
       <r>    -3.8143     0.0000   234.0000 </r>
       <r>    -3.7158     0.0000   234.0000 </r>
       <r>    -3.6173     0.0000   234.0000 </r>
       <r>    -3.5187     0.0000   234.0000 </r>
       <r>    -3.4202     0.0000   234.0000 </r>
       <r>    -3.3216    26.3300   236.5946 </r>
       <r>    -3.2231     8.6609   237.5868 </r>
       <r>    -3.1246     6.7786   238.4347 </r>
       <r>    -3.0260     5.8253   239.2075 </r>
       <r>    -2.9275     3.1003   239.5722 </r>
       <r>    -2.8289     3.7197   240.0000 </r>
       <r>    -2.7304     0.0000   240.0000 </r>
       <r>    -2.6319     0.0000   240.0000 </r>
       <r>    -2.5333     0.0000   240.0000 </r>
       <r>    -2.4348     0.0000   240.0000 </r>
       <r>    -2.3362    23.3513   242.3010 </r>
       <r>    -2.2377     2.5499   242.6179 </r>
       <r>    -2.1392     2.0548   242.8692 </r>
       <r>    -2.0406     5.0809   243.4340 </r>
       <r>    -1.9421     4.3484   243.9952 </r>
       <r>    -1.8435     4.6095   244.4542 </r>
       <r>    -1.7450     4.8651   245.0794 </r>
       <r>    -1.6465     2.1221   245.3424 </r>
       <r>    -1.5479     2.7598   245.6387 </r>
       <r>    -1.4494     3.0433   246.0000 </r>
       <r>    -1.3508     0.0000   246.0000 </r>
       <r>    -1.2523     0.0000   246.0000 </r>
       <r>    -1.1538     0.0000   246.0000 </r>
       <r>    -1.0552    60.8884   251.9999 </r>
       <r>    -0.9567     0.0000   252.0000 </r>
       <r>    -0.8581     0.0000   252.0000 </r>
       <r>    -0.7596    24.2618   254.3908 </r>
       <r>    -0.6611     2.8119   254.7106 </r>
       <r>    -0.5625     2.4478   255.0079 </r>
       <r>    -0.4640     8.0516   255.8602 </r>
       <r>    -0.3654     0.5713   256.0563 </r>
       <r>    -0.2669    15.9905   257.8092 </r>
       <r>    -0.1684    27.5177   260.7116 </r>
       <r>    -0.0698    21.8866   263.4571 </r>
       <r>     0.0287     2.8812   263.7839 </r>
       <r>     0.1273    41.8325   267.9889 </r>
       <r>     0.2258    18.1734   270.4578 </r>
       <r>     0.3243    20.4969   272.7198 </r>
       <r>     0.4229    15.9532   274.4387 </r>
       <r>     0.5214    28.9629   277.5875 </r>
       <r>     0.6200    52.4173   283.5323 </r>
       <r>     0.7185    52.3157   289.9221 </r>
       <r>     0.8170    36.1404   295.0618 </r>
       <r>     0.9156    43.0441   299.6751 </r>
       <r>     1.0141    46.6490   305.1638 </r>
       <r>     1.1127    49.3579   311.6311 </r>
       <r>     1.2112    33.8815   316.2724 </r>
       <r>     1.3097    23.2890   319.5621 </r>
       <r>     1.4083     1.6910   320.0000 </r>
       <r>     1.5068     0.0000   320.0000 </r>
       <r>     1.6054     0.0000   320.0000 </r>
       <r>     1.7039     0.0000   320.0000 </r>
       <r>     1.8024     0.0000   320.0000 </r>
       <r>     1.9010     0.0000   320.0000 </r>
       <r>     1.9995     0.0000   320.0000 </r>
       <r>     2.0981     0.0000   320.0000 </r>
       <r>     2.1966     0.0000   320.0000 </r>
       <r>     2.2951     0.0000   320.0000 </r>
       <r>     2.3937     0.0000   320.0000 </r>
       <r>     2.4922     0.0000   320.0000 </r>
       <r>     2.5908     0.0000   320.0000 </r>
       <r>     2.6893     0.0000   320.0000 </r>
      </set>
     </set>
    </array>
   </total>
  </dos>
 </calculation>
 <structure name="finalpos" >
  <crystal>
   <varray name="basis" >
    <v>      21.88213274      -0.00704359       0.00000000 </v>
    <v>     -10.94701190      18.95403137       0.00000000 </v>
    <v>       0.00000000       0.00000000      20.00000000 </v>
   </varray>
   <i name="volume">   8293.55048133 </i>
   <varray name="rec_basis" >
    <v>       0.04570788       0.02639886       0.00000000 </v>
    <v>       0.00001699       0.05276903       0.00000000 </v>
    <v>       0.00000000       0.00000000       0.05000000 </v>
   </varray>
  </crystal>
  <varray name="positions" >
   <v>       0.28783097       0.65758411       0.54064949 </v>
   <v>       0.06243284       0.59977209       0.55155516 </v>
   <v>       0.10707654       0.67804718       0.56266268 </v>
   <v>       0.09267288       0.55561756       0.54577777 </v>
   <v>       0.04834860       0.48191120       0.53829355 </v>
   <v>       0.16791056       0.57909696       0.54602913 </v>
   <v>       0.40433778       0.73987657       0.53891577 </v>
   <v>       0.37016767       0.62346191       0.54044732 </v>
   <v>       0.45830935       0.41246409       0.54729987 </v>
   <v>       0.42749135       0.45575156       0.55192438 </v>
   <v>       0.41087337       0.33326404       0.54718508 </v>
   <v>       0.34904414       0.42177435       0.56220455 </v>
   <v>       0.49772021       0.93484283       0.54672996 </v>
   <v>       0.46810630       0.97910428       0.54098361 </v>
   <v>       0.44599034       0.85956662       0.54731593 </v>
   <v>       0.47185004       0.53025420       0.54785218 </v>
   <v>       0.44834640       0.58197634       0.54896446 </v>
   <v>       0.58420472       0.08237479       0.54125462 </v>
   <v>       0.61546875       0.03935222       0.54707825 </v>
   <v>       0.57225079       0.96513443       0.55080180 </v>
   <v>       0.60640126       0.92071883       0.55997132 </v>
   <v>       0.62711189       0.15936539       0.54124694 </v>
   <v>       0.53256632       0.44362815       0.54081646 </v>
   <v>       0.56649063       0.40061512       0.54049001 </v>
   <v>       0.51026387       0.05144567       0.53773365 </v>
   <v>       0.54568652       0.55977641       0.54141626 </v>
   <v>       0.57571241       0.51753265       0.53741777 </v>
   <v>       0.75589765       0.36885757       0.52022272 </v>
   <v>       0.64692356       0.27153171       0.52179614 </v>
   <v>       0.65860338       0.38047075       0.52109581 </v>
   <v>       0.69469385       0.07123902       0.54717499 </v>
   <v>       0.94518509       0.49475899       0.54006188 </v>
   <v>       0.98825751       0.56891736       0.54743695 </v>
   <v>       0.95628909       0.61614326       0.54873056 </v>
   <v>       0.86817250       0.46063602       0.54014259 </v>
   <v>       0.97599593       0.45178622       0.53516111 </v>
   <v>       0.21799890       0.64405943       0.54066536 </v>
   <v>       0.33701276       0.72619949       0.53920058 </v>
   <v>       0.42384298       0.69075194       0.53859643 </v>
   <v>       0.30153427       0.60398144       0.54160084 </v>
   <v>       0.38384321       0.56734905       0.54022957 </v>
   <v>       0.46054568       0.80969157       0.53827386 </v>
   <v>       0.61468314       0.30999332       0.52158826 </v>
   <v>       0.63061368       0.42561547       0.51992239 </v>
   <v>       0.60179316       0.19837246       0.52129158 </v>
   <v>       0.71742530       0.29815522       0.52028559 </v>
   <v>       0.72932513       0.41276006       0.51966552 </v>
   <v>       0.82905130       0.39693841       0.51855672 </v>
   <v>       0.15677375       0.69162811       0.58755873 </v>
   <v>       0.12225847       0.70660122       0.51463206 </v>
   <v>       0.07859603       0.69841475       0.59171903 </v>
   <v>       0.07259273       0.44888977       0.53492530 </v>
   <v>       0.18083352       0.53650311       0.54971087 </v>
   <v>       0.43747415       0.30552423       0.52873339 </v>
   <v>       0.39048601       0.31295908       0.59758090 </v>
   <v>       0.36471487       0.31781876       0.51501716 </v>
   <v>       0.33479397       0.45804689       0.58561661 </v>
   <v>       0.32087450       0.40690310       0.51397079 </v>
   <v>       0.32885438       0.37361126       0.59234578 </v>
   <v>       0.48797423       0.08601449       0.53338785 </v>
   <v>       0.41074859       0.95483679       0.53879663 </v>
   <v>       0.39073430       0.84648497       0.55467384 </v>
   <v>       0.56990706       0.86937362       0.58188491 </v>
   <v>       0.62224589       0.90917118       0.51138172 </v>
   <v>       0.65407680       0.94800418       0.59090265 </v>
   <v>       0.53666690       0.34625219       0.55953269 </v>
   <v>       0.63255583       0.53972485       0.53265439 </v>
   <v>       0.57887438       0.61711950       0.53934374 </v>
   <v>       0.49057566       0.63721500       0.55627933 </v>
   <v>       0.72253350       0.12580111       0.52928859 </v>
   <v>       0.71475801       0.07056319       0.59753633 </v>
   <v>       0.71029476       0.04092553       0.51465779 </v>
   <v>       0.68168937       0.18401152       0.55977549 </v>
   <v>       0.90177414       0.58961057       0.53066715 </v>
   <v>       0.95672211       0.63593454       0.59948619 </v>
   <v>       0.98664819       0.66264657       0.51687063 </v>
   <v>       0.84358760       0.48994241       0.56038236 </v>
   <v>       0.94136675       0.39500322       0.52987093 </v>
  </varray>
 </structure>
</modeling>
