<?xml version="1.0" encoding="ISO-8859-1"?>
<modeling>
 <generator>
  <i name="program" type="string">vasp </i>
  <i name="version" type="string">5.4.4.18Apr17-6-g9f103f2a35  </i>
  <i name="subversion" type="string">(build Jun 07 2020 16:50:00) complex            parallel </i>
  <i name="platform" type="string">LinuxIFC </i>
  <i name="date" type="string">2023 03 03 </i>
  <i name="time" type="string">01:39:43 </i>
 </generator>
 <incar>
  <i type="string" name="SYSTEM">Simulation for cell shape cell volume r</i>
  <i type="int" name="ISTART">     1</i>
  <i type="string" name="PREC">high</i>
  <i type="string" name="ALGO">48</i>
  <i type="int" name="ICHARG">    11</i>
  <i type="int" name="NELM">   200</i>
  <i type="int" name="IBRION">    -1</i>
  <i name="EDIFF">      0.00001000</i>
  <i name="EDIFFG">     -0.01000000</i>
  <i type="int" name="NSW">     0</i>
  <i type="int" name="ISIF">     2</i>
  <i name="ENCUT">    500.00000000</i>
  <i name="POTIM">      0.30000000</i>
  <i type="string" name="LREAL">A</i>
  <i type="int" name="ISMEAR">     0</i>
  <i name="SIGMA">      0.01000000</i>
  <i type="int" name="NWRITE">     0</i>
  <i type="logical" name="LWAVE"> F  </i>
  <i type="logical" name="LCHARG"> F  </i>
  <v type="int" name="KPOINT_BSE">    -1     0     0     0</v>
  <i type="int" name="NELM">   200</i>
  <i type="string" name="GGA">PE</i>
 </incar>
 <structure name="primitive_cell" >
  <crystal>
   <varray name="basis" >
    <v>      14.55643960       0.02769111       0.00000000 </v>
    <v>      -7.25899091      12.59257763       0.00000000 </v>
    <v>       0.00000000       0.00000000      20.00000000 </v>
   </varray>
   <i name="volume">   3670.08210580 </i>
   <varray name="rec_basis" >
    <v>       0.06862287       0.03955765       0.00000000 </v>
    <v>      -0.00015090       0.07932487       0.00000000 </v>
    <v>       0.00000000       0.00000000       0.05000000 </v>
   </varray>
  </crystal>
  <varray name="positions" >
   <v>      -0.10172450      -0.40525296       0.48581988 </v>
   <v>      -0.05675168      -0.44594675       0.49329394 </v>
   <v>      -0.11183084       0.44402916      -0.49662463 </v>
   <v>       0.05300879      -0.38965558       0.49201533 </v>
   <v>      -0.27792526       0.44398905      -0.49538283 </v>
   <v>       0.10120583      -0.27484853       0.47683114 </v>
   <v>      -0.22897128       0.38646071      -0.49859774 </v>
   <v>       0.09659552      -0.21829600      -0.47899318 </v>
   <v>      -0.31044254      -0.41068151       0.46768735 </v>
   <v>       0.13706322      -0.24712788       0.41972608 </v>
   <v>      -0.05116324       0.39409772      -0.48715237 </v>
   <v>       0.11372548      -0.43952236      -0.49846745 </v>
   <v>      -0.38419636       0.38707248      -0.49731022 </v>
   <v>       0.05861966       0.45040764      -0.48841365 </v>
   <v>      -0.39279194      -0.44869092       0.48370453 </v>
   <v>      -0.27843331       0.28054069       0.49610054 </v>
   <v>      -0.44298915       0.44574368      -0.49461462 </v>
   <v>      -0.09962917       0.27916166      -0.47221815 </v>
   <v>       0.23088544      -0.38163255      -0.49663312 </v>
   <v>      -0.44118882       0.28124087       0.49727269 </v>
   <v>      -0.38434307       0.23186478       0.49449077 </v>
   <v>      -0.30740096      -0.22078050       0.48170246 </v>
   <v>       0.27998460      -0.27552865      -0.49262552 </v>
   <v>       0.10354106       0.40964407      -0.48101540 </v>
   <v>      -0.44753619      -0.39331324       0.48110978 </v>
   <v>      -0.13843522       0.25045984      -0.41585727 </v>
   <v>      -0.38856044      -0.28524253       0.45213957 </v>
   <v>      -0.09271057       0.22328062       0.48401596 </v>
   <v>       0.33010419      -0.10370723       0.44103614 </v>
   <v>       0.45053867       0.39963628      -0.47466865 </v>
   <v>       0.28026036      -0.43882878      -0.49861240 </v>
   <v>      -0.42323483      -0.27069555       0.39918037 </v>
   <v>      -0.44234103       0.11437058       0.49468757 </v>
   <v>       0.38585451      -0.22641483      -0.49084218 </v>
   <v>      -0.32942397       0.10910784      -0.43709387 </v>
   <v>       0.44581134      -0.43961346      -0.49932641 </v>
   <v>       0.48776371       0.16758728       0.37400467 </v>
   <v>       0.42957785       0.27806119      -0.39286083 </v>
   <v>       0.40422419      -0.05772362       0.46830391 </v>
   <v>       0.39228152       0.29215432      -0.44483934 </v>
   <v>       0.39566902       0.45484728      -0.47751813 </v>
   <v>       0.32480321       0.06499500       0.41080566 </v>
   <v>      -0.40342674       0.06319308      -0.46448425 </v>
   <v>       0.44334557      -0.10891164      -0.49103113 </v>
   <v>       0.38655505      -0.38137548      -0.49732701 </v>
   <v>       0.44311772      -0.27540073      -0.49315622 </v>
   <v>       0.42119296       0.09938078       0.41179464 </v>
   <v>       0.46151222       0.05182195       0.46112223 </v>
   <v>       0.30921137       0.22769962      -0.47264599 </v>
   <v>      -0.32437291      -0.05647203      -0.40407664 </v>
   <v>       0.31326999       0.41678356      -0.46159975 </v>
   <v>      -0.46082159      -0.04628204      -0.45714943 </v>
   <v>      -0.42105161      -0.09334873      -0.40708778 </v>
   <v>      -0.48834231      -0.16345815      -0.37059205 </v>
  </varray>
 </structure>
 <varray name="primitive_index" >
  <v type="int" >        1 </v>
  <v type="int" >       16 </v>
  <v type="int" >       23 </v>
  <v type="int" >       15 </v>
  <v type="int" >       33 </v>
  <v type="int" >       37 </v>
  <v type="int" >       10 </v>
  <v type="int" >       43 </v>
  <v type="int" >        2 </v>
  <v type="int" >       44 </v>
  <v type="int" >       24 </v>
  <v type="int" >       14 </v>
  <v type="int" >        8 </v>
  <v type="int" >       25 </v>
  <v type="int" >       19 </v>
  <v type="int" >       32 </v>
  <v type="int" >       26 </v>
  <v type="int" >       40 </v>
  <v type="int" >       13 </v>
  <v type="int" >       31 </v>
  <v type="int" >        9 </v>
  <v type="int" >       45 </v>
  <v type="int" >       35 </v>
  <v type="int" >        4 </v>
  <v type="int" >       18 </v>
  <v type="int" >       50 </v>
  <v type="int" >       38 </v>
  <v type="int" >       49 </v>
  <v type="int" >        6 </v>
  <v type="int" >       27 </v>
  <v type="int" >       36 </v>
  <v type="int" >       46 </v>
  <v type="int" >       29 </v>
  <v type="int" >       12 </v>
  <v type="int" >        3 </v>
  <v type="int" >       17 </v>
  <v type="int" >       53 </v>
  <v type="int" >       52 </v>
  <v type="int" >       30 </v>
  <v type="int" >       41 </v>
  <v type="int" >       28 </v>
  <v type="int" >       54 </v>
  <v type="int" >       22 </v>
  <v type="int" >       20 </v>
  <v type="int" >       11 </v>
  <v type="int" >       34 </v>
  <v type="int" >       42 </v>
  <v type="int" >        7 </v>
  <v type="int" >       51 </v>
  <v type="int" >       48 </v>
  <v type="int" >        5 </v>
  <v type="int" >       21 </v>
  <v type="int" >       39 </v>
  <v type="int" >       47 </v>
 </varray>
 <kpoints>
  <generation param="listgenerated">
   <i name="divisions" type="int">      20 </i>
   <v>       0.00000000       0.00000000       0.00000000 </v>
   <v>       0.50000000       0.00000000       0.00000000 </v>
   <v>       0.33333333       0.33333333       0.00000000 </v>
   <v>       0.00000000       0.00000000       0.00000000 </v>
  </generation>
  <varray name="kpointlist" >
   <v>       0.00000000       0.00000000       0.00000000 </v>
   <v>       0.02631579       0.00000000       0.00000000 </v>
   <v>       0.05263158       0.00000000       0.00000000 </v>
   <v>       0.07894737       0.00000000       0.00000000 </v>
   <v>       0.10526316       0.00000000       0.00000000 </v>
   <v>       0.13157895       0.00000000       0.00000000 </v>
   <v>       0.15789474       0.00000000       0.00000000 </v>
   <v>       0.18421053       0.00000000       0.00000000 </v>
   <v>       0.21052632       0.00000000       0.00000000 </v>
   <v>       0.23684211       0.00000000       0.00000000 </v>
   <v>       0.26315789       0.00000000       0.00000000 </v>
   <v>       0.28947368       0.00000000       0.00000000 </v>
   <v>       0.31578947       0.00000000       0.00000000 </v>
   <v>       0.34210526       0.00000000       0.00000000 </v>
   <v>       0.36842105       0.00000000       0.00000000 </v>
   <v>       0.39473684       0.00000000       0.00000000 </v>
   <v>       0.42105263       0.00000000       0.00000000 </v>
   <v>       0.44736842       0.00000000       0.00000000 </v>
   <v>       0.47368421       0.00000000       0.00000000 </v>
   <v>       0.50000000       0.00000000       0.00000000 </v>
   <v>       0.50000000       0.00000000       0.00000000 </v>
   <v>       0.49122807       0.01754386       0.00000000 </v>
   <v>       0.48245614       0.03508772       0.00000000 </v>
   <v>       0.47368421       0.05263158       0.00000000 </v>
   <v>       0.46491228       0.07017544       0.00000000 </v>
   <v>       0.45614035       0.08771930       0.00000000 </v>
   <v>       0.44736842       0.10526316       0.00000000 </v>
   <v>       0.43859649       0.12280702       0.00000000 </v>
   <v>       0.42982456       0.14035088       0.00000000 </v>
   <v>       0.42105263       0.15789474       0.00000000 </v>
   <v>       0.41228070       0.17543860       0.00000000 </v>
   <v>       0.40350877       0.19298246       0.00000000 </v>
   <v>       0.39473684       0.21052632       0.00000000 </v>
   <v>       0.38596491       0.22807018       0.00000000 </v>
   <v>       0.37719298       0.24561404       0.00000000 </v>
   <v>       0.36842105       0.26315789       0.00000000 </v>
   <v>       0.35964912       0.28070175       0.00000000 </v>
   <v>       0.35087719       0.29824561       0.00000000 </v>
   <v>       0.34210526       0.31578947       0.00000000 </v>
   <v>       0.33333333       0.33333333       0.00000000 </v>
   <v>       0.33333333       0.33333333       0.00000000 </v>
   <v>       0.31578947       0.31578947       0.00000000 </v>
   <v>       0.29824561       0.29824561       0.00000000 </v>
   <v>       0.28070175       0.28070175       0.00000000 </v>
   <v>       0.26315789       0.26315789       0.00000000 </v>
   <v>       0.24561404       0.24561404       0.00000000 </v>
   <v>       0.22807018       0.22807018       0.00000000 </v>
   <v>       0.21052632       0.21052632       0.00000000 </v>
   <v>       0.19298246       0.19298246       0.00000000 </v>
   <v>       0.17543860       0.17543860       0.00000000 </v>
   <v>       0.15789474       0.15789474       0.00000000 </v>
   <v>       0.14035088       0.14035088       0.00000000 </v>
   <v>       0.12280702       0.12280702       0.00000000 </v>
   <v>       0.10526316       0.10526316       0.00000000 </v>
   <v>       0.08771930       0.08771930       0.00000000 </v>
   <v>       0.07017544       0.07017544       0.00000000 </v>
   <v>       0.05263158       0.05263158       0.00000000 </v>
   <v>       0.03508772       0.03508772       0.00000000 </v>
   <v>       0.01754386       0.01754386       0.00000000 </v>
   <v>       0.00000000       0.00000000       0.00000000 </v>
  </varray>
  <varray name="weights" >
   <v>       0.01666667 </v>
   <v>       0.01666667 </v>
   <v>       0.01666667 </v>
   <v>       0.01666667 </v>
   <v>       0.01666667 </v>
   <v>       0.01666667 </v>
   <v>       0.01666667 </v>
   <v>       0.01666667 </v>
   <v>       0.01666667 </v>
   <v>       0.01666667 </v>
   <v>       0.01666667 </v>
   <v>       0.01666667 </v>
   <v>       0.01666667 </v>
   <v>       0.01666667 </v>
   <v>       0.01666667 </v>
   <v>       0.01666667 </v>
   <v>       0.01666667 </v>
   <v>       0.01666667 </v>
   <v>       0.01666667 </v>
   <v>       0.01666667 </v>
   <v>       0.01666667 </v>
   <v>       0.01666667 </v>
   <v>       0.01666667 </v>
   <v>       0.01666667 </v>
   <v>       0.01666667 </v>
   <v>       0.01666667 </v>
   <v>       0.01666667 </v>
   <v>       0.01666667 </v>
   <v>       0.01666667 </v>
   <v>       0.01666667 </v>
   <v>       0.01666667 </v>
   <v>       0.01666667 </v>
   <v>       0.01666667 </v>
   <v>       0.01666667 </v>
   <v>       0.01666667 </v>
   <v>       0.01666667 </v>
   <v>       0.01666667 </v>
   <v>       0.01666667 </v>
   <v>       0.01666667 </v>
   <v>       0.01666667 </v>
   <v>       0.01666667 </v>
   <v>       0.01666667 </v>
   <v>       0.01666667 </v>
   <v>       0.01666667 </v>
   <v>       0.01666667 </v>
   <v>       0.01666667 </v>
   <v>       0.01666667 </v>
   <v>       0.01666667 </v>
   <v>       0.01666667 </v>
   <v>       0.01666667 </v>
   <v>       0.01666667 </v>
   <v>       0.01666667 </v>
   <v>       0.01666667 </v>
   <v>       0.01666667 </v>
   <v>       0.01666667 </v>
   <v>       0.01666667 </v>
   <v>       0.01666667 </v>
   <v>       0.01666667 </v>
   <v>       0.01666667 </v>
   <v>       0.01666667 </v>
  </varray>
 </kpoints>
 <parameters>
  <separator name="general" >
   <i type="string" name="SYSTEM">Simulation for cell shape cell volume r</i>
   <i type="logical" name="LCOMPAT"> F  </i>
  </separator>
  <separator name="electronic" >
   <i type="string" name="PREC">high</i>
   <i name="ENMAX">    500.00000000</i>
   <i name="ENAUG">    644.87300000</i>
   <i name="EDIFF">      0.00001000</i>
   <i type="int" name="IALGO">    38</i>
   <i type="int" name="IWAVPR">    10</i>
   <i type="int" name="NBANDS">   160</i>
   <i name="NELECT">    234.00000000</i>
   <i type="int" name="TURBO">     0</i>
   <i type="int" name="IRESTART">     0</i>
   <i type="int" name="NREBOOT">     0</i>
   <i type="int" name="NMIN">     0</i>
   <i name="EREF">      0.00000000</i>
   <separator name="electronic smearing" >
    <i type="int" name="ISMEAR">     0</i>
    <i name="SIGMA">      0.01000000</i>
    <i name="KSPACING">      0.50000000</i>
    <i type="logical" name="KGAMMA"> T  </i>
   </separator>
   <separator name="electronic projectors" >
    <i type="logical" name="LREAL"> T  </i>
    <v name="ROPT">     -0.00040000     -0.00040000     -0.00040000     -0.00040000</v>
    <i type="int" name="LMAXPAW">  -100</i>
    <i type="int" name="LMAXMIX">     2</i>
    <i type="logical" name="NLSPLINE"> F  </i>
   </separator>
   <separator name="electronic startup" >
    <i type="int" name="ISTART">     1</i>
    <i type="int" name="ICHARG">    11</i>
    <i type="int" name="INIWAV">     1</i>
   </separator>
   <separator name="electronic spin" >
    <i type="int" name="ISPIN">     1</i>
    <i type="logical" name="LNONCOLLINEAR"> F  </i>
    <v name="MAGMOM">      1.00000000      1.00000000      1.00000000      1.00000000      1.00000000      1.00000000      1.00000000      1.00000000      1.00000000      1.00000000      1.00000000      1.00000000      1.00000000      1.00000000      1.00000000      1.00000000      1.00000000      1.00000000      1.00000000      1.00000000
      1.00000000      1.00000000      1.00000000      1.00000000      1.00000000      1.00000000      1.00000000      1.00000000      1.00000000      1.00000000      1.00000000      1.00000000      1.00000000      1.00000000      1.00000000      1.00000000      1.00000000      1.00000000      1.00000000      1.00000000
      1.00000000      1.00000000      1.00000000      1.00000000      1.00000000      1.00000000      1.00000000      1.00000000      1.00000000      1.00000000      1.00000000      1.00000000      1.00000000      1.00000000</v>
    <i name="NUPDOWN">     -1.00000000</i>
    <i type="logical" name="LSORBIT"> F  </i>
    <v name="SAXIS">      0.00000000      0.00000000      1.00000000</v>
    <i type="logical" name="LSPIRAL"> F  </i>
    <v name="QSPIRAL">      0.00000000      0.00000000      0.00000000</v>
    <i type="logical" name="LZEROZ"> F  </i>
   </separator>
   <separator name="electronic exchange-correlation" >
    <i type="logical" name="LASPH"> F  </i>
    <i type="logical" name="LMETAGGA"> F  </i>
   </separator>
   <separator name="electronic convergence" >
    <i type="int" name="NELM">   200</i>
    <i type="int" name="NELMDL">     0</i>
    <i type="int" name="NELMIN">     2</i>
    <i name="ENINI">    500.00000000</i>
    <separator name="electronic convergence detail" >
     <i type="logical" name="LDIAG"> T  </i>
     <i type="logical" name="LSUBROT"> F  </i>
     <i name="WEIMIN">      0.00000000</i>
     <i name="EBREAK">      0.00000002</i>
     <i name="DEPER">      0.30000000</i>
     <i type="int" name="NRMM">     4</i>
     <i name="TIME">      0.40000000</i>
    </separator>
   </separator>
   <separator name="electronic mixer" >
    <i name="AMIX">      0.40000000</i>
    <i name="BMIX">      1.00000000</i>
    <i name="AMIN">      0.10000000</i>
    <i name="AMIX_MAG">      1.60000000</i>
    <i name="BMIX_MAG">      1.00000000</i>
    <separator name="electronic mixer details" >
     <i type="int" name="IMIX">     4</i>
     <i type="logical" name="MIXFIRST"> F  </i>
     <i type="int" name="MAXMIX">   -45</i>
     <i name="WC">    100.00000000</i>
     <i type="int" name="INIMIX">     1</i>
     <i type="int" name="MIXPRE">     1</i>
     <i type="int" name="MREMOVE">     5</i>
    </separator>
   </separator>
   <separator name="electronic dipolcorrection" >
    <i type="logical" name="LDIPOL"> F  </i>
    <i type="logical" name="LMONO"> F  </i>
    <i type="int" name="IDIPOL">     0</i>
    <i name="EPSILON">      1.00000000</i>
    <v name="DIPOL">   -100.00000000   -100.00000000   -100.00000000</v>
    <i name="EFIELD">      0.00000000</i>
   </separator>
  </separator>
  <separator name="grids" >
   <i type="int" name="NGX">   108</i>
   <i type="int" name="NGY">   108</i>
   <i type="int" name="NGZ">   150</i>
   <i type="int" name="NGXF">   160</i>
   <i type="int" name="NGYF">   160</i>
   <i type="int" name="NGZF">   224</i>
   <i type="logical" name="ADDGRID"> F  </i>
  </separator>
  <separator name="ionic" >
   <i type="int" name="NSW">     0</i>
   <i type="int" name="IBRION">    -1</i>
   <i type="int" name="MDALGO">     0</i>
   <i type="int" name="ISIF">     2</i>
   <i name="PSTRESS">      0.00000000</i>
   <i name="EDIFFG">     -0.01000000</i>
   <i type="int" name="NFREE">     0</i>
   <i name="POTIM">      0.30000000</i>
   <i name="SMASS">     -3.00000000</i>
   <i name="SCALEE">      1.00000000</i>
  </separator>
  <separator name="ionic md" >
   <i name="TEBEG">      0.00010000</i>
   <i name="TEEND">      0.00010000</i>
   <i type="int" name="NBLOCK">     1</i>
   <i type="int" name="KBLOCK">     1</i>
   <i type="int" name="NPACO">   256</i>
   <i name="APACO">     16.00000000</i>
  </separator>
  <separator name="symmetry" >
   <i type="int" name="ISYM">     2</i>
   <i name="SYMPREC">      0.00001000</i>
  </separator>
  <separator name="dos" >
   <i type="int" name="LORBIT">     0</i>
   <v name="RWIGS">     -1.00000000     -1.00000000     -1.00000000     -1.00000000</v>
   <i type="int" name="NEDOS">   301</i>
   <i name="EMIN">     10.00000000</i>
   <i name="EMAX">    -10.00000000</i>
   <i name="EFERMI">      0.00000000</i>
  </separator>
  <separator name="writing" >
   <i type="int" name="NWRITE">     0</i>
   <i type="logical" name="LWAVE"> F  </i>
   <i type="logical" name="LDOWNSAMPLE"> F  </i>
   <i type="logical" name="LCHARG"> F  </i>
   <i type="logical" name="LPARD"> F  </i>
   <i type="logical" name="LVTOT"> F  </i>
   <i type="logical" name="LVHAR"> F  </i>
   <i type="logical" name="LELF"> F  </i>
   <i type="logical" name="LOPTICS"> F  </i>
   <v name="STM">      0.00000000      0.00000000      0.00000000      0.00000000      0.00000000      0.00000000      0.00000000</v>
  </separator>
  <separator name="performance" >
   <i type="int" name="NPAR">    16</i>
   <i type="int" name="NSIM">     4</i>
   <i type="int" name="NBLK">    -1</i>
   <i type="logical" name="LPLANE"> T  </i>
   <i type="logical" name="LSCALAPACK"> T  </i>
   <i type="logical" name="LSCAAWARE"> F  </i>
   <i type="logical" name="LSCALU"> F  </i>
   <i type="logical" name="LASYNC"> F  </i>
   <i type="logical" name="LORBITALREAL"> F  </i>
  </separator>
  <separator name="miscellaneous" >
   <i type="int" name="IDIOT">     3</i>
   <i type="int" name="ISPECIAL">     0</i>
   <i type="logical" name="LMUSIC"> F  </i>
   <v name="POMASS">      1.00000000     12.01100000     14.00100000     16.00000000</v>
   <v name="DARWINR">      0.00000000      0.00000000      0.00000000      0.00000000</v>
   <v name="DARWINV">      1.00000000      1.00000000      1.00000000      1.00000000</v>
   <i type="logical" name="LCORR"> T  </i>
  </separator>
  <i type="logical" name="GGA_COMPAT"> T  </i>
  <i type="logical" name="LBERRY"> F  </i>
  <i type="int" name="ICORELEVEL">     0</i>
  <i type="logical" name="LDAU"> F  </i>
  <i type="int" name="I_CONSTRAINED_M">     0</i>
  <separator name="electronic exchange-correlation" >
   <i type="string" name="GGA">PE</i>
   <i type="int" name="VOSKOWN">     0</i>
   <i type="logical" name="LHFCALC"> F  </i>
   <i type="string" name="PRECFOCK"></i>
   <i type="logical" name="LSYMGRAD"> F  </i>
   <i type="logical" name="LHFONE"> F  </i>
   <i type="logical" name="LRHFCALC"> F  </i>
   <i type="logical" name="LTHOMAS"> F  </i>
   <i type="logical" name="LMODELHF"> F  </i>
   <i name="ENCUT4O">     -1.00000000</i>
   <i type="int" name="EXXOEP">     0</i>
   <i type="int" name="FOURORBIT">     0</i>
   <i name="AEXX">      0.00000000</i>
   <i name="HFALPHA">      0.00000000</i>
   <i name="MCALPHA">      0.00000000</i>
   <i name="ALDAX">      1.00000000</i>
   <i name="AGGAX">      1.00000000</i>
   <i name="ALDAC">      1.00000000</i>
   <i name="AGGAC">      1.00000000</i>
   <i type="int" name="NKREDX">     1</i>
   <i type="int" name="NKREDY">     1</i>
   <i type="int" name="NKREDZ">     1</i>
   <i type="logical" name="SHIFTRED"> F  </i>
   <i type="logical" name="ODDONLY"> F  </i>
   <i type="logical" name="EVENONLY"> F  </i>
   <i type="int" name="LMAXFOCK">     0</i>
   <i type="int" name="NMAXFOCKAE">     0</i>
   <i type="logical" name="LFOCKAEDFT"> F  </i>
   <i name="HFSCREEN">      0.00000000</i>
   <i name="HFSCREENC">      0.00000000</i>
   <i type="int" name="NBANDSGWLOW">     0</i>
  </separator>
  <separator name="vdW DFT" >
   <i type="logical" name="LUSE_VDW"> F  </i>
   <i name="Zab_VDW">     -0.84910000</i>
   <i name="PARAM1">      0.12340000</i>
   <i name="PARAM2">      1.00000000</i>
   <i name="PARAM3">      0.00000000</i>
  </separator>
  <separator name="model GW" >
   <i type="int" name="MODEL_GW">     0</i>
   <i name="MODEL_EPS0">     40.77869006</i>
   <i name="MODEL_ALPHA">      1.00000000</i>
  </separator>
  <separator name="linear response parameters" >
   <i type="logical" name="LEPSILON"> F  </i>
   <i type="logical" name="LRPA"> F  </i>
   <i type="logical" name="LNABLA"> F  </i>
   <i type="logical" name="LVEL"> F  </i>
   <i type="int" name="KINTER">     0</i>
   <i name="CSHIFT">      0.10000000</i>
   <i name="OMEGAMAX">     -1.00000000</i>
   <i name="DEG_THRESHOLD">      0.00200000</i>
   <i name="RTIME">     -0.10000000</i>
   <i name="WPLASMAI">      0.00000000</i>
   <v name="DFIELD">      0.00000000      0.00000000      0.00000000</v>
   <v name="WPLASMA">      0.00000000      0.00000000      0.00000000      0.00000000      0.00000000      0.00000000      0.00000000      0.00000000      0.00000000</v>
  </separator>
  <separator name="orbital magnetization" >
   <i type="logical" name="NUCIND"> F  </i>
   <v name="MAGPOS">      0.00000000      0.00000000      0.00000000</v>
   <i type="logical" name="LNICSALL"> T  </i>
   <i type="logical" name="ORBITALMAG"> F  </i>
   <i type="logical" name="LMAGBLOCH"> F  </i>
   <i type="logical" name="LCHIMAG"> F  </i>
   <i type="logical" name="LGAUGE"> T  </i>
   <i type="int" name="MAGATOM">     0</i>
   <v name="MAGDIPOL">      0.00000000      0.00000000      0.00000000</v>
   <v name="AVECCONST">      0.00000000      0.00000000      0.00000000</v>
  </separator>
  <separator name="response functions" >
   <i type="logical" name="LADDER"> F  </i>
   <i type="logical" name="LRPAFORCE"> F  </i>
   <i type="logical" name="LFXC"> F  </i>
   <i type="logical" name="LHARTREE"> T  </i>
   <i type="int" name="IBSE">     0</i>
   <v type="int" name="KPOINT">    -1     0     0     0</v>
   <i type="logical" name="LTCTE"> F  </i>
   <i type="logical" name="LTETE"> F  </i>
   <i type="logical" name="LTRIPLET"> F  </i>
   <i type="logical" name="LFXCEPS"> F  </i>
   <i type="logical" name="LFXHEG"> F  </i>
   <i type="int" name="NATURALO">     2</i>
   <i type="logical" name="L2ORDER"> F  </i>
   <i type="logical" name="LMP2LT"> F  </i>
   <i type="logical" name="LUSEW"> F  </i>
   <i name="ENCUTGW">     -2.00000000</i>
   <i name="ENCUTGWSOFT">     -2.00000000</i>
   <i name="ENCUTLF">     -1.00000000</i>
   <i type="int" name="LMAXMP2">    -1</i>
   <i name="SCISSOR">      0.00000000</i>
   <i type="int" name="NOMEGA">     0</i>
   <i type="int" name="NOMEGAR">     0</i>
   <i type="int" name="NBANDSGW">    -1</i>
   <i type="int" name="NBANDSO">    -1</i>
   <i type="int" name="NBANDSV">    -1</i>
   <i type="int" name="NELM">   200</i>
   <i type="int" name="NELMHF">     1</i>
   <i type="int" name="DIM">     3</i>
   <i type="int" name="ANTIRES">     0</i>
   <i name="OMEGAMAX">    -30.00000000</i>
   <i name="OMEGAMIN">    -30.00000000</i>
   <i name="OMEGATL">   -200.00000000</i>
   <i type="int" name="OMEGAGRID">   140</i>
   <i name="CSHIFT">     -0.10000000</i>
   <i type="logical" name="SELFENERGY"> F  </i>
   <i type="logical" name="LSPECTRAL"> F  </i>
   <i type="logical" name="LSPECTRALGW"> F  </i>
   <i type="logical" name="LSINGLES"> F  </i>
   <i type="logical" name="LFERMIGW"> F  </i>
   <i type="logical" name="ODDONLYGW"> F  </i>
   <i type="logical" name="EVENONLYGW"> F  </i>
   <i type="int" name="NKREDLFX">     1</i>
   <i type="int" name="NKREDLFY">     1</i>
   <i type="int" name="NKREDLFZ">     1</i>
   <i type="int" name="MAXMEM">  2800</i>
   <i type="int" name="TELESCOPE">     0</i>
   <i type="int" name="TAUPAR">     1</i>
   <i type="int" name="OMEGAPAR">    -1</i>
   <i name="LAMBDA">      1.00000000</i>
  </separator>
  <separator name="External order field" >
   <i name="OFIELD_KAPPA">      0.00000000</i>
   <v name="OFIELD_K">      0.00000000      0.00000000      0.00000000</v>
   <i name="OFIELD_Q6_NEAR">      0.00000000</i>
   <i name="OFIELD_Q6_FAR">      0.00000000</i>
   <i name="OFIELD_A">      0.00000000</i>
  </separator>
  <separator name="solvation model" >
   <i type="logical" name="LSOL"> F  </i>
  </separator>
 </parameters>
 <atominfo>
  <atoms>      54 </atoms>
  <types>       4 </types>
  <array name="atoms" >
   <dimension dim="1">ion</dimension>
   <field type="string">element</field>
   <field type="int">atomtype</field>
   <set>
    <rc><c>H </c><c>   1</c></rc>
    <rc><c>H </c><c>   1</c></rc>
    <rc><c>H </c><c>   1</c></rc>
    <rc><c>H </c><c>   1</c></rc>
    <rc><c>H </c><c>   1</c></rc>
    <rc><c>H </c><c>   1</c></rc>
    <rc><c>C </c><c>   2</c></rc>
    <rc><c>C </c><c>   2</c></rc>
    <rc><c>C </c><c>   2</c></rc>
    <rc><c>C </c><c>   2</c></rc>
    <rc><c>C </c><c>   2</c></rc>
    <rc><c>C </c><c>   2</c></rc>
    <rc><c>C </c><c>   2</c></rc>
    <rc><c>C </c><c>   2</c></rc>
    <rc><c>C </c><c>   2</c></rc>
    <rc><c>C </c><c>   2</c></rc>
    <rc><c>C </c><c>   2</c></rc>
    <rc><c>C </c><c>   2</c></rc>
    <rc><c>C </c><c>   2</c></rc>
    <rc><c>C </c><c>   2</c></rc>
    <rc><c>C </c><c>   2</c></rc>
    <rc><c>C </c><c>   2</c></rc>
    <rc><c>C </c><c>   2</c></rc>
    <rc><c>C </c><c>   2</c></rc>
    <rc><c>C </c><c>   2</c></rc>
    <rc><c>C </c><c>   2</c></rc>
    <rc><c>C </c><c>   2</c></rc>
    <rc><c>C </c><c>   2</c></rc>
    <rc><c>C </c><c>   2</c></rc>
    <rc><c>C </c><c>   2</c></rc>
    <rc><c>N </c><c>   3</c></rc>
    <rc><c>N </c><c>   3</c></rc>
    <rc><c>N </c><c>   3</c></rc>
    <rc><c>N </c><c>   3</c></rc>
    <rc><c>N </c><c>   3</c></rc>
    <rc><c>N </c><c>   3</c></rc>
    <rc><c>N </c><c>   3</c></rc>
    <rc><c>N </c><c>   3</c></rc>
    <rc><c>N </c><c>   3</c></rc>
    <rc><c>N </c><c>   3</c></rc>
    <rc><c>N </c><c>   3</c></rc>
    <rc><c>N </c><c>   3</c></rc>
    <rc><c>O </c><c>   4</c></rc>
    <rc><c>O </c><c>   4</c></rc>
    <rc><c>O </c><c>   4</c></rc>
    <rc><c>O </c><c>   4</c></rc>
    <rc><c>O </c><c>   4</c></rc>
    <rc><c>O </c><c>   4</c></rc>
    <rc><c>O </c><c>   4</c></rc>
    <rc><c>O </c><c>   4</c></rc>
    <rc><c>O </c><c>   4</c></rc>
    <rc><c>O </c><c>   4</c></rc>
    <rc><c>O </c><c>   4</c></rc>
    <rc><c>O </c><c>   4</c></rc>
   </set>
  </array>
  <array name="atomtypes" >
   <dimension dim="1">type</dimension>
   <field type="int">atomspertype</field>
   <field type="string">element</field>
   <field>mass</field>
   <field>valence</field>
   <field type="string">pseudopotential</field>
   <set>
    <rc><c>   6</c><c>H </c><c>      1.00000000</c><c>      1.00000000</c><c>  PAW_PBE H 15Jun2001                   </c></rc>
    <rc><c>  24</c><c>C </c><c>     12.01100000</c><c>      4.00000000</c><c>  PAW_PBE C 08Apr2002                   </c></rc>
    <rc><c>  12</c><c>N </c><c>     14.00100000</c><c>      5.00000000</c><c>  PAW_PBE N 08Apr2002                   </c></rc>
    <rc><c>  12</c><c>O </c><c>     16.00000000</c><c>      6.00000000</c><c>  PAW_PBE O 08Apr2002                   </c></rc>
   </set>
  </array>
 </atominfo>
 <structure name="initialpos" >
  <crystal>
   <varray name="basis" >
    <v>      14.55643960       0.02769111       0.00000000 </v>
    <v>      -7.25899091      12.59257763       0.00000000 </v>
    <v>       0.00000000       0.00000000      20.00000000 </v>
   </varray>
   <i name="volume">   3670.08210580 </i>
   <varray name="rec_basis" >
    <v>       0.06862287       0.03955765       0.00000000 </v>
    <v>      -0.00015090       0.07932487       0.00000000 </v>
    <v>       0.00000000       0.00000000       0.05000000 </v>
   </varray>
  </crystal>
  <varray name="positions" >
   <v>       0.89827550       0.59474704       0.48581988 </v>
   <v>       0.68955746       0.58931849       0.46768735 </v>
   <v>       0.67057603       0.10910784       0.56290613 </v>
   <v>       0.10354106       0.40964407       0.51898460 </v>
   <v>       0.31326999       0.41678356       0.53840025 </v>
   <v>       0.33010419       0.89629277       0.44103614 </v>
   <v>       0.46151222       0.05182195       0.46112223 </v>
   <v>       0.61580364       0.38707248       0.50268978 </v>
   <v>       0.61565693       0.23186478       0.49449077 </v>
   <v>       0.77102872       0.38646071       0.50140226 </v>
   <v>       0.38655505       0.61862452       0.50267299 </v>
   <v>       0.38585451       0.77358517       0.50915782 </v>
   <v>       0.23088544       0.61836745       0.50336688 </v>
   <v>       0.11372548       0.56047764       0.50153255 </v>
   <v>       0.05300879       0.61034442       0.49201533 </v>
   <v>       0.94324832       0.55405325       0.49329394 </v>
   <v>       0.44581134       0.56038654       0.50067359 </v>
   <v>       0.55246381       0.60668676       0.48110978 </v>
   <v>       0.60720806       0.55130908       0.48370453 </v>
   <v>       0.44334557       0.89108836       0.50896887 </v>
   <v>       0.53917841       0.95371796       0.54285057 </v>
   <v>       0.59657326       0.06319308       0.53551575 </v>
   <v>       0.88816916       0.44402916       0.50337537 </v>
   <v>       0.94883676       0.39409772       0.51284763 </v>
   <v>       0.05861966       0.45040764       0.51158635 </v>
   <v>       0.55701085       0.44574368       0.50538538 </v>
   <v>       0.45053867       0.39963628       0.52533135 </v>
   <v>       0.39566902       0.45484728       0.52248187 </v>
   <v>       0.55765897       0.11437058       0.49468757 </v>
   <v>       0.40422419       0.94227638       0.46830391 </v>
   <v>       0.55881118       0.28124087       0.49727269 </v>
   <v>       0.72156669       0.28054069       0.49610054 </v>
   <v>       0.72207474       0.44398905       0.50461717 </v>
   <v>       0.44311772       0.72459927       0.50684378 </v>
   <v>       0.27998460       0.72447135       0.50737448 </v>
   <v>       0.28026036       0.56117122       0.50138760 </v>
   <v>       0.10120583       0.72515147       0.47683114 </v>
   <v>       0.61143956       0.71475747       0.45213957 </v>
   <v>       0.57894839       0.90665127       0.59291222 </v>
   <v>       0.90037083       0.27916166       0.52778185 </v>
   <v>       0.39228152       0.29215432       0.55516066 </v>
   <v>       0.42119296       0.09938078       0.41179464 </v>
   <v>       0.09659552       0.78170400       0.52100682 </v>
   <v>       0.13706322       0.75287212       0.41972608 </v>
   <v>       0.69259904       0.77921950       0.48170246 </v>
   <v>       0.57676517       0.72930445       0.39918037 </v>
   <v>       0.51165769       0.83654185       0.62940795 </v>
   <v>       0.67562709       0.94352797       0.59592336 </v>
   <v>       0.90728943       0.22328062       0.48401596 </v>
   <v>       0.86156478       0.25045984       0.58414273 </v>
   <v>       0.30921137       0.22769962       0.52735401 </v>
   <v>       0.42957785       0.27806119       0.60713917 </v>
   <v>       0.48776371       0.16758728       0.37400467 </v>
   <v>       0.32480321       0.06499500       0.41080566 </v>
  </varray>
 </structure>
 <calculation>
  <scstep>
   <time name="dav">   40.03   40.33</time>
   <time name="total">   40.12   40.43</time>
   <energy>
    <i name="alphaZ">     66.56395938 </i>
    <i name="ewald">  29922.43788590 </i>
    <i name="hartreedc"> -39881.53275603 </i>
    <i name="XCdc">    926.79795866 </i>
    <i name="pawpsdc">  22196.62915463 </i>
    <i name="pawaedc"> -22252.32019183 </i>
    <i name="eentropy">     -0.00000000 </i>
    <i name="bandstr">  -3343.90465201 </i>
    <i name="atom">  11969.17610806 </i>
    <i name="e_fr_energy">   -396.15253323 </i>
    <i name="e_wo_entrp">   -396.15253323 </i>
    <i name="e_0_energy">   -396.15253323 </i>
   </energy>
  </scstep>
  <scstep>
   <time name="dav">   44.17   44.49</time>
   <time name="total">   44.17   44.50</time>
   <energy>
    <i name="e_fr_energy">   -399.22623488 </i>
    <i name="e_wo_entrp">   -399.22623488 </i>
    <i name="e_0_energy">   -399.22623488 </i>
   </energy>
  </scstep>
  <scstep>
   <time name="dav">   48.83   49.18</time>
   <time name="total">   48.83   49.18</time>
   <energy>
    <i name="e_fr_energy">   -399.30943117 </i>
    <i name="e_wo_entrp">   -399.30943117 </i>
    <i name="e_0_energy">   -399.30943117 </i>
   </energy>
  </scstep>
  <scstep>
   <time name="dav">   43.78   44.09</time>
   <time name="total">   43.78   44.10</time>
   <energy>
    <i name="e_fr_energy">   -399.31069522 </i>
    <i name="e_wo_entrp">   -399.31069522 </i>
    <i name="e_0_energy">   -399.31069522 </i>
   </energy>
  </scstep>
  <scstep>
   <time name="dav">   49.45   49.80</time>
   <time name="total">   49.46   49.81</time>
   <energy>
    <i name="e_fr_energy">   -399.31075523 </i>
    <i name="e_wo_entrp">   -399.31075523 </i>
    <i name="e_0_energy">   -399.31075523 </i>
   </energy>
  </scstep>
  <scstep>
   <time name="dav">   37.83   38.10</time>
   <time name="total">   37.83   38.10</time>
   <energy>
    <i name="alphaZ">     66.56395938 </i>
    <i name="ewald">  29922.43788590 </i>
    <i name="hartreedc"> -39881.53275603 </i>
    <i name="XCdc">    926.79795866 </i>
    <i name="pawpsdc">  22196.62915463 </i>
    <i name="pawaedc"> -22252.32019183 </i>
    <i name="eentropy">     -0.00000000 </i>
    <i name="bandstr">  -3347.06287647 </i>
    <i name="atom">  11969.17610806 </i>
    <i name="e_fr_energy">   -399.31075770 </i>
    <i name="e_wo_entrp">   -399.31075770 </i>
    <i name="e_0_energy">   -399.31075770 </i>
   </energy>
  </scstep>
  <structure>
   <crystal>
    <varray name="basis" >
     <v>      14.55643960       0.02769111       0.00000000 </v>
     <v>      -7.25899091      12.59257763       0.00000000 </v>
     <v>       0.00000000       0.00000000      20.00000000 </v>
    </varray>
    <i name="volume">   3670.08210580 </i>
    <varray name="rec_basis" >
     <v>       0.06862287       0.03955765       0.00000000 </v>
     <v>      -0.00015090       0.07932487       0.00000000 </v>
     <v>       0.00000000       0.00000000       0.05000000 </v>
    </varray>
   </crystal>
   <varray name="positions" >
    <v>       0.89827550       0.59474704       0.48581988 </v>
    <v>       0.68955746       0.58931849       0.46768735 </v>
    <v>       0.67057603       0.10910784       0.56290613 </v>
    <v>       0.10354106       0.40964407       0.51898460 </v>
    <v>       0.31326999       0.41678356       0.53840025 </v>
    <v>       0.33010419       0.89629277       0.44103614 </v>
    <v>       0.46151222       0.05182195       0.46112223 </v>
    <v>       0.61580364       0.38707248       0.50268978 </v>
    <v>       0.61565693       0.23186478       0.49449077 </v>
    <v>       0.77102872       0.38646071       0.50140226 </v>
    <v>       0.38655505       0.61862452       0.50267299 </v>
    <v>       0.38585451       0.77358517       0.50915782 </v>
    <v>       0.23088544       0.61836745       0.50336688 </v>
    <v>       0.11372548       0.56047764       0.50153255 </v>
    <v>       0.05300879       0.61034442       0.49201533 </v>
    <v>       0.94324832       0.55405325       0.49329394 </v>
    <v>       0.44581134       0.56038654       0.50067359 </v>
    <v>       0.55246381       0.60668676       0.48110978 </v>
    <v>       0.60720806       0.55130908       0.48370453 </v>
    <v>       0.44334557       0.89108836       0.50896887 </v>
    <v>       0.53917841       0.95371796       0.54285057 </v>
    <v>       0.59657326       0.06319308       0.53551575 </v>
    <v>       0.88816916       0.44402916       0.50337537 </v>
    <v>       0.94883676       0.39409772       0.51284763 </v>
    <v>       0.05861966       0.45040764       0.51158635 </v>
    <v>       0.55701085       0.44574368       0.50538538 </v>
    <v>       0.45053867       0.39963628       0.52533135 </v>
    <v>       0.39566902       0.45484728       0.52248187 </v>
    <v>       0.55765897       0.11437058       0.49468757 </v>
    <v>       0.40422419       0.94227638       0.46830391 </v>
    <v>       0.55881118       0.28124087       0.49727269 </v>
    <v>       0.72156669       0.28054069       0.49610054 </v>
    <v>       0.72207474       0.44398905       0.50461717 </v>
    <v>       0.44311772       0.72459927       0.50684378 </v>
    <v>       0.27998460       0.72447135       0.50737448 </v>
    <v>       0.28026036       0.56117122       0.50138760 </v>
    <v>       0.10120583       0.72515147       0.47683114 </v>
    <v>       0.61143956       0.71475747       0.45213957 </v>
    <v>       0.57894839       0.90665127       0.59291222 </v>
    <v>       0.90037083       0.27916166       0.52778185 </v>
    <v>       0.39228152       0.29215432       0.55516066 </v>
    <v>       0.42119296       0.09938078       0.41179464 </v>
    <v>       0.09659552       0.78170400       0.52100682 </v>
    <v>       0.13706322       0.75287212       0.41972608 </v>
    <v>       0.69259904       0.77921950       0.48170246 </v>
    <v>       0.57676517       0.72930445       0.39918037 </v>
    <v>       0.51165769       0.83654185       0.62940795 </v>
    <v>       0.67562709       0.94352797       0.59592336 </v>
    <v>       0.90728943       0.22328062       0.48401596 </v>
    <v>       0.86156478       0.25045984       0.58414273 </v>
    <v>       0.30921137       0.22769962       0.52735401 </v>
    <v>       0.42957785       0.27806119       0.60713917 </v>
    <v>       0.48776371       0.16758728       0.37400467 </v>
    <v>       0.32480321       0.06499500       0.41080566 </v>
   </varray>
  </structure>
  <varray name="forces" >
   <v>      -0.00180295       0.00063060      -0.00084628 </v>
   <v>       0.00345540      -0.00150883      -0.00284063 </v>
   <v>       0.00146792       0.00259305      -0.00073708 </v>
   <v>       0.00254565       0.00043230       0.00038804 </v>
   <v>      -0.00068785       0.00014010       0.00319732 </v>
   <v>      -0.00114298      -0.00096943       0.00019802 </v>
   <v>       0.00189201       0.00357423       0.00105632 </v>
   <v>      -0.00291383      -0.00870514      -0.00423024 </v>
   <v>      -0.00965015       0.00298496       0.00377304 </v>
   <v>       0.00538364       0.00452128      -0.00086427 </v>
   <v>       0.00323969       0.01177928       0.00465178 </v>
   <v>       0.01028322      -0.00286538      -0.00029539 </v>
   <v>      -0.00466694      -0.00275223       0.00085264 </v>
   <v>      -0.00001221      -0.00066747       0.00070428 </v>
   <v>       0.00101437      -0.00175284      -0.00265588 </v>
   <v>      -0.00290863       0.00002518      -0.00045979 </v>
   <v>       0.00053030      -0.00265435      -0.00002490 </v>
   <v>      -0.00442664       0.00072832       0.00043593 </v>
   <v>       0.00195119       0.00121104       0.00038089 </v>
   <v>      -0.00100525       0.00192742       0.00356444 </v>
   <v>      -0.00161469      -0.00377143       0.00057554 </v>
   <v>       0.00189790       0.00218760       0.00008620 </v>
   <v>      -0.00097957       0.00020789       0.00258625 </v>
   <v>       0.00091334      -0.00087753       0.00045830 </v>
   <v>       0.00214137      -0.00093921      -0.00091236 </v>
   <v>      -0.00242087       0.00430166       0.00205613 </v>
   <v>       0.00318277      -0.00134468      -0.00295849 </v>
   <v>      -0.00245703       0.00033130       0.00215965 </v>
   <v>       0.00241278      -0.00253170      -0.00168221 </v>
   <v>      -0.00212662      -0.00321381       0.00104849 </v>
   <v>       0.00553399       0.00541068       0.00223632 </v>
   <v>       0.00249149      -0.00647680       0.00651792 </v>
   <v>      -0.00446314       0.00636297      -0.00405470 </v>
   <v>      -0.00828765      -0.00535527       0.00086309 </v>
   <v>      -0.00338281       0.00677116      -0.00634204 </v>
   <v>       0.00338847      -0.00626155       0.00546458 </v>
   <v>       0.00207319       0.00116300      -0.00731374 </v>
   <v>      -0.00125976      -0.00105956      -0.00377853 </v>
   <v>       0.00760102       0.00165812      -0.00011363 </v>
   <v>       0.00094784      -0.00382273       0.00331028 </v>
   <v>      -0.00604941      -0.00187784      -0.00491500 </v>
   <v>      -0.00885832      -0.00452914       0.00141564 </v>
   <v>      -0.00246949       0.00148241       0.00332543 </v>
   <v>      -0.00072655      -0.00227680       0.00324423 </v>
   <v>      -0.00319811       0.00055990      -0.00456908 </v>
   <v>      -0.00172581      -0.00474551      -0.00014964 </v>
   <v>      -0.00225427      -0.00002889       0.00206384 </v>
   <v>      -0.00135369       0.00006305      -0.00361263 </v>
   <v>       0.00388995       0.00253355      -0.00034424 </v>
   <v>       0.00083707       0.00177144      -0.00359106 </v>
   <v>       0.00324771       0.00088797       0.00052483 </v>
   <v>       0.00375914      -0.00017933      -0.00049784 </v>
   <v>       0.00378790       0.00498440       0.00037418 </v>
   <v>       0.00297589      -0.00005743       0.00027607 </v>
  </varray>
  <varray name="stress" >
   <v>      -0.04914477       0.00729491       0.00339333 </v>
   <v>       0.00729491      -0.05048726       0.00731363 </v>
   <v>       0.00339334       0.00731364      -0.47602849 </v>
  </varray>
  <energy>
   <i name="e_fr_energy">   -400.86334729 </i>
   <i name="e_wo_entrp">   -400.86334729 </i>
   <i name="e_0_energy">     -0.00000000 </i>
  </energy>
  <time name="totalsc">  294.06  296.24</time>
  <eigenvalues>
   <array>
    <dimension dim="1">band</dimension>
    <dimension dim="2">kpoint</dimension>
    <dimension dim="3">spin</dimension>
    <field>eigene</field>
    <field>occ</field>
    <set>
     <set comment="spin 1">
      <set comment="kpoint 1">
       <r>  -30.7908    1.0000 </r>
       <r>  -30.7798    1.0000 </r>
       <r>  -30.6792    1.0000 </r>
       <r>  -30.6685    1.0000 </r>
       <r>  -30.5296    1.0000 </r>
       <r>  -30.5218    1.0000 </r>
       <r>  -26.4455    1.0000 </r>
       <r>  -26.4351    1.0000 </r>
       <r>  -26.3376    1.0000 </r>
       <r>  -26.3269    1.0000 </r>
       <r>  -26.2047    1.0000 </r>
       <r>  -26.2004    1.0000 </r>
       <r>  -26.1223    1.0000 </r>
       <r>  -26.1121    1.0000 </r>
       <r>  -23.4011    1.0000 </r>
       <r>  -23.3649    1.0000 </r>
       <r>  -23.1774    1.0000 </r>
       <r>  -23.1636    1.0000 </r>
       <r>  -22.6517    1.0000 </r>
       <r>  -22.4095    1.0000 </r>
       <r>  -22.3647    1.0000 </r>
       <r>  -20.9194    1.0000 </r>
       <r>  -20.8030    1.0000 </r>
       <r>  -20.6819    1.0000 </r>
       <r>  -20.1784    1.0000 </r>
       <r>  -19.9163    1.0000 </r>
       <r>  -19.8254    1.0000 </r>
       <r>  -18.9943    1.0000 </r>
       <r>  -18.7499    1.0000 </r>
       <r>  -18.6630    1.0000 </r>
       <r>  -18.1675    1.0000 </r>
       <r>  -17.9225    1.0000 </r>
       <r>  -17.1065    1.0000 </r>
       <r>  -16.9799    1.0000 </r>
       <r>  -16.7313    1.0000 </r>
       <r>  -16.2613    1.0000 </r>
       <r>  -16.0494    1.0000 </r>
       <r>  -16.0016    1.0000 </r>
       <r>  -15.8202    1.0000 </r>
       <r>  -15.5353    1.0000 </r>
       <r>  -15.2845    1.0000 </r>
       <r>  -14.6945    1.0000 </r>
       <r>  -14.4090    1.0000 </r>
       <r>  -14.1379    1.0000 </r>
       <r>  -13.7629    1.0000 </r>
       <r>  -13.6912    1.0000 </r>
       <r>  -13.6686    1.0000 </r>
       <r>  -13.5710    1.0000 </r>
       <r>  -13.3829    1.0000 </r>
       <r>  -13.3420    1.0000 </r>
       <r>  -13.3378    1.0000 </r>
       <r>  -13.2911    1.0000 </r>
       <r>  -13.2257    1.0000 </r>
       <r>  -13.1167    1.0000 </r>
       <r>  -13.0387    1.0000 </r>
       <r>  -12.8057    1.0000 </r>
       <r>  -12.6538    1.0000 </r>
       <r>  -12.6258    1.0000 </r>
       <r>  -12.4490    1.0000 </r>
       <r>  -12.3829    1.0000 </r>
       <r>  -12.3691    1.0000 </r>
       <r>  -12.3479    1.0000 </r>
       <r>  -12.2203    1.0000 </r>
       <r>  -12.0489    1.0000 </r>
       <r>  -11.9595    1.0000 </r>
       <r>  -11.7875    1.0000 </r>
       <r>  -11.7354    1.0000 </r>
       <r>  -11.6381    1.0000 </r>
       <r>  -11.3818    1.0000 </r>
       <r>  -11.3501    1.0000 </r>
       <r>  -11.3265    1.0000 </r>
       <r>  -11.2773    1.0000 </r>
       <r>  -11.0530    1.0000 </r>
       <r>  -10.9067    1.0000 </r>
       <r>  -10.8795    1.0000 </r>
       <r>  -10.7637    1.0000 </r>
       <r>  -10.5745    1.0000 </r>
       <r>  -10.4669    1.0000 </r>
       <r>  -10.1983    1.0000 </r>
       <r>   -9.9655    1.0000 </r>
       <r>   -9.7835    1.0000 </r>
       <r>   -9.5634    1.0000 </r>
       <r>   -9.5189    1.0000 </r>
       <r>   -9.3480    1.0000 </r>
       <r>   -9.2844    1.0000 </r>
       <r>   -9.2769    1.0000 </r>
       <r>   -9.1202    1.0000 </r>
       <r>   -8.4953    1.0000 </r>
       <r>   -8.4177    1.0000 </r>
       <r>   -7.9739    1.0000 </r>
       <r>   -7.8333    1.0000 </r>
       <r>   -7.6028    1.0000 </r>
       <r>   -7.5840    1.0000 </r>
       <r>   -7.5493    1.0000 </r>
       <r>   -7.5117    1.0000 </r>
       <r>   -7.5062    1.0000 </r>
       <r>   -7.3595    1.0000 </r>
       <r>   -7.2681    1.0000 </r>
       <r>   -7.2517    1.0000 </r>
       <r>   -7.0957    1.0000 </r>
       <r>   -6.9988    1.0000 </r>
       <r>   -6.9887    1.0000 </r>
       <r>   -6.9404    1.0000 </r>
       <r>   -6.8977    1.0000 </r>
       <r>   -6.8525    1.0000 </r>
       <r>   -6.8378    1.0000 </r>
       <r>   -6.7854    1.0000 </r>
       <r>   -6.7697    1.0000 </r>
       <r>   -6.6817    1.0000 </r>
       <r>   -6.6109    1.0000 </r>
       <r>   -6.5886    1.0000 </r>
       <r>   -6.5693    1.0000 </r>
       <r>   -6.5549    1.0000 </r>
       <r>   -6.4370    1.0000 </r>
       <r>   -6.2215    1.0000 </r>
       <r>   -6.1841    1.0000 </r>
       <r>   -6.1498    1.0000 </r>
       <r>   -3.9001    0.0000 </r>
       <r>   -3.8481    0.0000 </r>
       <r>   -3.2904    0.0000 </r>
       <r>   -3.1281    0.0000 </r>
       <r>   -3.0141    0.0000 </r>
       <r>   -3.0048    0.0000 </r>
       <r>   -2.9118    0.0000 </r>
       <r>   -2.7498    0.0000 </r>
       <r>   -2.3825    0.0000 </r>
       <r>   -2.3808    0.0000 </r>
       <r>   -2.3258    0.0000 </r>
       <r>   -1.9683    0.0000 </r>
       <r>   -1.8070    0.0000 </r>
       <r>   -1.4597    0.0000 </r>
       <r>   -0.5212    0.0000 </r>
       <r>   -0.3070    0.0000 </r>
       <r>   -0.0963    0.0000 </r>
       <r>    0.4481    0.0000 </r>
       <r>    0.4604    0.0000 </r>
       <r>    0.5423    0.0000 </r>
       <r>    0.7240    0.0000 </r>
       <r>    0.7971    0.0000 </r>
       <r>    0.8873    0.0000 </r>
       <r>    0.9073    0.0000 </r>
       <r>    1.0937    0.0000 </r>
       <r>    1.2345    0.0000 </r>
       <r>    1.3037    0.0000 </r>
       <r>    1.3835    0.0000 </r>
       <r>    1.4344    0.0000 </r>
       <r>    1.4958    0.0000 </r>
       <r>    1.5165    0.0000 </r>
       <r>    1.5713    0.0000 </r>
       <r>    1.7382    0.0000 </r>
       <r>    1.7461    0.0000 </r>
       <r>    1.9186    0.0000 </r>
       <r>    2.0115    0.0000 </r>
       <r>    2.0964    0.0000 </r>
       <r>    2.1180    0.0000 </r>
       <r>    2.1264    0.0000 </r>
       <r>    2.1490    0.0000 </r>
       <r>    2.1664    0.0000 </r>
       <r>    2.1753    0.0000 </r>
       <r>    2.2303    0.0000 </r>
      </set>
      <set comment="kpoint 2">
       <r>  -30.7908    1.0000 </r>
       <r>  -30.7798    1.0000 </r>
       <r>  -30.6792    1.0000 </r>
       <r>  -30.6685    1.0000 </r>
       <r>  -30.5296    1.0000 </r>
       <r>  -30.5218    1.0000 </r>
       <r>  -26.4454    1.0000 </r>
       <r>  -26.4351    1.0000 </r>
       <r>  -26.3376    1.0000 </r>
       <r>  -26.3269    1.0000 </r>
       <r>  -26.2047    1.0000 </r>
       <r>  -26.2004    1.0000 </r>
       <r>  -26.1223    1.0000 </r>
       <r>  -26.1121    1.0000 </r>
       <r>  -23.4009    1.0000 </r>
       <r>  -23.3649    1.0000 </r>
       <r>  -23.1777    1.0000 </r>
       <r>  -23.1638    1.0000 </r>
       <r>  -22.6512    1.0000 </r>
       <r>  -22.4098    1.0000 </r>
       <r>  -22.3647    1.0000 </r>
       <r>  -20.9191    1.0000 </r>
       <r>  -20.8032    1.0000 </r>
       <r>  -20.6818    1.0000 </r>
       <r>  -20.1780    1.0000 </r>
       <r>  -19.9165    1.0000 </r>
       <r>  -19.8263    1.0000 </r>
       <r>  -18.9933    1.0000 </r>
       <r>  -18.7495    1.0000 </r>
       <r>  -18.6633    1.0000 </r>
       <r>  -18.1674    1.0000 </r>
       <r>  -17.9223    1.0000 </r>
       <r>  -17.1073    1.0000 </r>
       <r>  -16.9844    1.0000 </r>
       <r>  -16.7269    1.0000 </r>
       <r>  -16.2614    1.0000 </r>
       <r>  -16.0493    1.0000 </r>
       <r>  -16.0016    1.0000 </r>
       <r>  -15.8198    1.0000 </r>
       <r>  -15.5355    1.0000 </r>
       <r>  -15.2835    1.0000 </r>
       <r>  -14.6933    1.0000 </r>
       <r>  -14.4090    1.0000 </r>
       <r>  -14.1402    1.0000 </r>
       <r>  -13.7640    1.0000 </r>
       <r>  -13.6970    1.0000 </r>
       <r>  -13.6691    1.0000 </r>
       <r>  -13.5683    1.0000 </r>
       <r>  -13.3833    1.0000 </r>
       <r>  -13.3511    1.0000 </r>
       <r>  -13.3291    1.0000 </r>
       <r>  -13.2895    1.0000 </r>
       <r>  -13.2222    1.0000 </r>
       <r>  -13.1154    1.0000 </r>
       <r>  -13.0387    1.0000 </r>
       <r>  -12.8057    1.0000 </r>
       <r>  -12.6537    1.0000 </r>
       <r>  -12.6256    1.0000 </r>
       <r>  -12.4490    1.0000 </r>
       <r>  -12.3829    1.0000 </r>
       <r>  -12.3691    1.0000 </r>
       <r>  -12.3478    1.0000 </r>
       <r>  -12.2203    1.0000 </r>
       <r>  -12.0489    1.0000 </r>
       <r>  -11.9593    1.0000 </r>
       <r>  -11.7878    1.0000 </r>
       <r>  -11.7351    1.0000 </r>
       <r>  -11.6379    1.0000 </r>
       <r>  -11.3869    1.0000 </r>
       <r>  -11.3476    1.0000 </r>
       <r>  -11.3253    1.0000 </r>
       <r>  -11.2771    1.0000 </r>
       <r>  -11.0534    1.0000 </r>
       <r>  -10.9083    1.0000 </r>
       <r>  -10.8789    1.0000 </r>
       <r>  -10.7631    1.0000 </r>
       <r>  -10.5747    1.0000 </r>
       <r>  -10.4664    1.0000 </r>
       <r>  -10.1991    1.0000 </r>
       <r>   -9.9638    1.0000 </r>
       <r>   -9.7862    1.0000 </r>
       <r>   -9.5624    1.0000 </r>
       <r>   -9.5178    1.0000 </r>
       <r>   -9.3476    1.0000 </r>
       <r>   -9.2844    1.0000 </r>
       <r>   -9.2767    1.0000 </r>
       <r>   -9.1201    1.0000 </r>
       <r>   -8.4964    1.0000 </r>
       <r>   -8.4178    1.0000 </r>
       <r>   -7.9737    1.0000 </r>
       <r>   -7.8333    1.0000 </r>
       <r>   -7.6029    1.0000 </r>
       <r>   -7.5839    1.0000 </r>
       <r>   -7.5492    1.0000 </r>
       <r>   -7.5117    1.0000 </r>
       <r>   -7.5062    1.0000 </r>
       <r>   -7.3594    1.0000 </r>
       <r>   -7.2713    1.0000 </r>
       <r>   -7.2481    1.0000 </r>
       <r>   -7.0957    1.0000 </r>
       <r>   -6.9988    1.0000 </r>
       <r>   -6.9887    1.0000 </r>
       <r>   -6.9406    1.0000 </r>
       <r>   -6.8978    1.0000 </r>
       <r>   -6.8527    1.0000 </r>
       <r>   -6.8379    1.0000 </r>
       <r>   -6.7853    1.0000 </r>
       <r>   -6.7697    1.0000 </r>
       <r>   -6.6817    1.0000 </r>
       <r>   -6.6109    1.0000 </r>
       <r>   -6.5886    1.0000 </r>
       <r>   -6.5694    1.0000 </r>
       <r>   -6.5547    1.0000 </r>
       <r>   -6.4370    1.0000 </r>
       <r>   -6.2215    1.0000 </r>
       <r>   -6.1841    1.0000 </r>
       <r>   -6.1499    1.0000 </r>
       <r>   -3.8994    0.0000 </r>
       <r>   -3.8480    0.0000 </r>
       <r>   -3.2912    0.0000 </r>
       <r>   -3.1281    0.0000 </r>
       <r>   -3.0143    0.0000 </r>
       <r>   -3.0048    0.0000 </r>
       <r>   -2.9118    0.0000 </r>
       <r>   -2.7500    0.0000 </r>
       <r>   -2.4015    0.0000 </r>
       <r>   -2.3821    0.0000 </r>
       <r>   -2.3046    0.0000 </r>
       <r>   -1.9677    0.0000 </r>
       <r>   -1.8067    0.0000 </r>
       <r>   -1.4594    0.0000 </r>
       <r>   -0.5214    0.0000 </r>
       <r>   -0.3112    0.0000 </r>
       <r>   -0.0956    0.0000 </r>
       <r>    0.4472    0.0000 </r>
       <r>    0.4607    0.0000 </r>
       <r>    0.5460    0.0000 </r>
       <r>    0.7195    0.0000 </r>
       <r>    0.8008    0.0000 </r>
       <r>    0.8809    0.0000 </r>
       <r>    0.9151    0.0000 </r>
       <r>    1.0943    0.0000 </r>
       <r>    1.2349    0.0000 </r>
       <r>    1.2988    0.0000 </r>
       <r>    1.3880    0.0000 </r>
       <r>    1.4315    0.0000 </r>
       <r>    1.4853    0.0000 </r>
       <r>    1.5245    0.0000 </r>
       <r>    1.5797    0.0000 </r>
       <r>    1.7396    0.0000 </r>
       <r>    1.7454    0.0000 </r>
       <r>    1.9152    0.0000 </r>
       <r>    2.0151    0.0000 </r>
       <r>    2.0917    0.0000 </r>
       <r>    2.1192    0.0000 </r>
       <r>    2.1310    0.0000 </r>
       <r>    2.1395    0.0000 </r>
       <r>    2.1557    0.0000 </r>
       <r>    2.2264    0.0000 </r>
       <r>    2.2553    0.0000 </r>
      </set>
      <set comment="kpoint 3">
       <r>  -30.7908    1.0000 </r>
       <r>  -30.7798    1.0000 </r>
       <r>  -30.6792    1.0000 </r>
       <r>  -30.6685    1.0000 </r>
       <r>  -30.5296    1.0000 </r>
       <r>  -30.5218    1.0000 </r>
       <r>  -26.4455    1.0000 </r>
       <r>  -26.4351    1.0000 </r>
       <r>  -26.3376    1.0000 </r>
       <r>  -26.3269    1.0000 </r>
       <r>  -26.2047    1.0000 </r>
       <r>  -26.2004    1.0000 </r>
       <r>  -26.1222    1.0000 </r>
       <r>  -26.1121    1.0000 </r>
       <r>  -23.4003    1.0000 </r>
       <r>  -23.3648    1.0000 </r>
       <r>  -23.1787    1.0000 </r>
       <r>  -23.1641    1.0000 </r>
       <r>  -22.6495    1.0000 </r>
       <r>  -22.4107    1.0000 </r>
       <r>  -22.3649    1.0000 </r>
       <r>  -20.9185    1.0000 </r>
       <r>  -20.8037    1.0000 </r>
       <r>  -20.6818    1.0000 </r>
       <r>  -20.1768    1.0000 </r>
       <r>  -19.9173    1.0000 </r>
       <r>  -19.8287    1.0000 </r>
       <r>  -18.9904    1.0000 </r>
       <r>  -18.7483    1.0000 </r>
       <r>  -18.6643    1.0000 </r>
       <r>  -18.1672    1.0000 </r>
       <r>  -17.9215    1.0000 </r>
       <r>  -17.1097    1.0000 </r>
       <r>  -16.9967    1.0000 </r>
       <r>  -16.7147    1.0000 </r>
       <r>  -16.2615    1.0000 </r>
       <r>  -16.0491    1.0000 </r>
       <r>  -16.0018    1.0000 </r>
       <r>  -15.8184    1.0000 </r>
       <r>  -15.5361    1.0000 </r>
       <r>  -15.2803    1.0000 </r>
       <r>  -14.6898    1.0000 </r>
       <r>  -14.4093    1.0000 </r>
       <r>  -14.1472    1.0000 </r>
       <r>  -13.7675    1.0000 </r>
       <r>  -13.7105    1.0000 </r>
       <r>  -13.6724    1.0000 </r>
       <r>  -13.5612    1.0000 </r>
       <r>  -13.3844    1.0000 </r>
       <r>  -13.3611    1.0000 </r>
       <r>  -13.3195    1.0000 </r>
       <r>  -13.2858    1.0000 </r>
       <r>  -13.2124    1.0000 </r>
       <r>  -13.1112    1.0000 </r>
       <r>  -13.0390    1.0000 </r>
       <r>  -12.8054    1.0000 </r>
       <r>  -12.6535    1.0000 </r>
       <r>  -12.6250    1.0000 </r>
       <r>  -12.4488    1.0000 </r>
       <r>  -12.3828    1.0000 </r>
       <r>  -12.3691    1.0000 </r>
       <r>  -12.3478    1.0000 </r>
       <r>  -12.2203    1.0000 </r>
       <r>  -12.0491    1.0000 </r>
       <r>  -11.9588    1.0000 </r>
       <r>  -11.7887    1.0000 </r>
       <r>  -11.7343    1.0000 </r>
       <r>  -11.6374    1.0000 </r>
       <r>  -11.3986    1.0000 </r>
       <r>  -11.3440    1.0000 </r>
       <r>  -11.3215    1.0000 </r>
       <r>  -11.2766    1.0000 </r>
       <r>  -11.0543    1.0000 </r>
       <r>  -10.9126    1.0000 </r>
       <r>  -10.8775    1.0000 </r>
       <r>  -10.7612    1.0000 </r>
       <r>  -10.5754    1.0000 </r>
       <r>  -10.4650    1.0000 </r>
       <r>  -10.2016    1.0000 </r>
       <r>   -9.9589    1.0000 </r>
       <r>   -9.7940    1.0000 </r>
       <r>   -9.5597    1.0000 </r>
       <r>   -9.5142    1.0000 </r>
       <r>   -9.3461    1.0000 </r>
       <r>   -9.2845    1.0000 </r>
       <r>   -9.2761    1.0000 </r>
       <r>   -9.1200    1.0000 </r>
       <r>   -8.4997    1.0000 </r>
       <r>   -8.4183    1.0000 </r>
       <r>   -7.9731    1.0000 </r>
       <r>   -7.8331    1.0000 </r>
       <r>   -7.6030    1.0000 </r>
       <r>   -7.5836    1.0000 </r>
       <r>   -7.5489    1.0000 </r>
       <r>   -7.5117    1.0000 </r>
       <r>   -7.5062    1.0000 </r>
       <r>   -7.3593    1.0000 </r>
       <r>   -7.2774    1.0000 </r>
       <r>   -7.2406    1.0000 </r>
       <r>   -7.0955    1.0000 </r>
       <r>   -6.9989    1.0000 </r>
       <r>   -6.9886    1.0000 </r>
       <r>   -6.9412    1.0000 </r>
       <r>   -6.8979    1.0000 </r>
       <r>   -6.8533    1.0000 </r>
       <r>   -6.8383    1.0000 </r>
       <r>   -6.7851    1.0000 </r>
       <r>   -6.7696    1.0000 </r>
       <r>   -6.6817    1.0000 </r>
       <r>   -6.6108    1.0000 </r>
       <r>   -6.5886    1.0000 </r>
       <r>   -6.5698    1.0000 </r>
       <r>   -6.5543    1.0000 </r>
       <r>   -6.4370    1.0000 </r>
       <r>   -6.2214    1.0000 </r>
       <r>   -6.1841    1.0000 </r>
       <r>   -6.1499    1.0000 </r>
       <r>   -3.8974    0.0000 </r>
       <r>   -3.8475    0.0000 </r>
       <r>   -3.2936    0.0000 </r>
       <r>   -3.1279    0.0000 </r>
       <r>   -3.0150    0.0000 </r>
       <r>   -3.0046    0.0000 </r>
       <r>   -2.9120    0.0000 </r>
       <r>   -2.7506    0.0000 </r>
       <r>   -2.4349    0.0000 </r>
       <r>   -2.3836    0.0000 </r>
       <r>   -2.2677    0.0000 </r>
       <r>   -1.9660    0.0000 </r>
       <r>   -1.8057    0.0000 </r>
       <r>   -1.4586    0.0000 </r>
       <r>   -0.5220    0.0000 </r>
       <r>   -0.3233    0.0000 </r>
       <r>   -0.0934    0.0000 </r>
       <r>    0.4442    0.0000 </r>
       <r>    0.4615    0.0000 </r>
       <r>    0.5568    0.0000 </r>
       <r>    0.7086    0.0000 </r>
       <r>    0.8089    0.0000 </r>
       <r>    0.8710    0.0000 </r>
       <r>    0.9294    0.0000 </r>
       <r>    1.0959    0.0000 </r>
       <r>    1.2363    0.0000 </r>
       <r>    1.2875    0.0000 </r>
       <r>    1.3979    0.0000 </r>
       <r>    1.4235    0.0000 </r>
       <r>    1.4695    0.0000 </r>
       <r>    1.5375    0.0000 </r>
       <r>    1.6007    0.0000 </r>
       <r>    1.7417    0.0000 </r>
       <r>    1.7439    0.0000 </r>
       <r>    1.9066    0.0000 </r>
       <r>    2.0211    0.0000 </r>
       <r>    2.0686    0.0000 </r>
       <r>    2.1135    0.0000 </r>
       <r>    2.1159    0.0000 </r>
       <r>    2.1293    0.0000 </r>
       <r>    2.1584    0.0000 </r>
       <r>    2.2107    0.0000 </r>
       <r>    2.2465    0.0000 </r>
      </set>
      <set comment="kpoint 4">
       <r>  -30.7908    1.0000 </r>
       <r>  -30.7798    1.0000 </r>
       <r>  -30.6792    1.0000 </r>
       <r>  -30.6685    1.0000 </r>
       <r>  -30.5296    1.0000 </r>
       <r>  -30.5218    1.0000 </r>
       <r>  -26.4455    1.0000 </r>
       <r>  -26.4351    1.0000 </r>
       <r>  -26.3376    1.0000 </r>
       <r>  -26.3269    1.0000 </r>
       <r>  -26.2047    1.0000 </r>
       <r>  -26.2004    1.0000 </r>
       <r>  -26.1222    1.0000 </r>
       <r>  -26.1122    1.0000 </r>
       <r>  -23.3993    1.0000 </r>
       <r>  -23.3648    1.0000 </r>
       <r>  -23.1804    1.0000 </r>
       <r>  -23.1646    1.0000 </r>
       <r>  -22.6467    1.0000 </r>
       <r>  -22.4122    1.0000 </r>
       <r>  -22.3651    1.0000 </r>
       <r>  -20.9174    1.0000 </r>
       <r>  -20.8045    1.0000 </r>
       <r>  -20.6816    1.0000 </r>
       <r>  -20.1749    1.0000 </r>
       <r>  -19.9185    1.0000 </r>
       <r>  -19.8328    1.0000 </r>
       <r>  -18.9857    1.0000 </r>
       <r>  -18.7464    1.0000 </r>
       <r>  -18.6659    1.0000 </r>
       <r>  -18.1669    1.0000 </r>
       <r>  -17.9203    1.0000 </r>
       <r>  -17.1144    1.0000 </r>
       <r>  -17.0141    1.0000 </r>
       <r>  -16.6970    1.0000 </r>
       <r>  -16.2618    1.0000 </r>
       <r>  -16.0488    1.0000 </r>
       <r>  -16.0022    1.0000 </r>
       <r>  -15.8161    1.0000 </r>
       <r>  -15.5371    1.0000 </r>
       <r>  -15.2748    1.0000 </r>
       <r>  -14.6841    1.0000 </r>
       <r>  -14.4097    1.0000 </r>
       <r>  -14.1587    1.0000 </r>
       <r>  -13.7751    1.0000 </r>
       <r>  -13.7266    1.0000 </r>
       <r>  -13.6793    1.0000 </r>
       <r>  -13.5514    1.0000 </r>
       <r>  -13.3861    1.0000 </r>
       <r>  -13.3695    1.0000 </r>
       <r>  -13.3099    1.0000 </r>
       <r>  -13.2822    1.0000 </r>
       <r>  -13.1984    1.0000 </r>
       <r>  -13.1029    1.0000 </r>
       <r>  -13.0394    1.0000 </r>
       <r>  -12.8050    1.0000 </r>
       <r>  -12.6532    1.0000 </r>
       <r>  -12.6239    1.0000 </r>
       <r>  -12.4485    1.0000 </r>
       <r>  -12.3826    1.0000 </r>
       <r>  -12.3691    1.0000 </r>
       <r>  -12.3477    1.0000 </r>
       <r>  -12.2205    1.0000 </r>
       <r>  -12.0493    1.0000 </r>
       <r>  -11.9580    1.0000 </r>
       <r>  -11.7902    1.0000 </r>
       <r>  -11.7331    1.0000 </r>
       <r>  -11.6363    1.0000 </r>
       <r>  -11.4135    1.0000 </r>
       <r>  -11.3424    1.0000 </r>
       <r>  -11.3151    1.0000 </r>
       <r>  -11.2756    1.0000 </r>
       <r>  -11.0560    1.0000 </r>
       <r>  -10.9184    1.0000 </r>
       <r>  -10.8765    1.0000 </r>
       <r>  -10.7583    1.0000 </r>
       <r>  -10.5764    1.0000 </r>
       <r>  -10.4627    1.0000 </r>
       <r>  -10.2056    1.0000 </r>
       <r>   -9.9510    1.0000 </r>
       <r>   -9.8059    1.0000 </r>
       <r>   -9.5570    1.0000 </r>
       <r>   -9.5078    1.0000 </r>
       <r>   -9.3438    1.0000 </r>
       <r>   -9.2845    1.0000 </r>
       <r>   -9.2749    1.0000 </r>
       <r>   -9.1198    1.0000 </r>
       <r>   -8.5051    1.0000 </r>
       <r>   -8.4191    1.0000 </r>
       <r>   -7.9722    1.0000 </r>
       <r>   -7.8330    1.0000 </r>
       <r>   -7.6033    1.0000 </r>
       <r>   -7.5831    1.0000 </r>
       <r>   -7.5485    1.0000 </r>
       <r>   -7.5117    1.0000 </r>
       <r>   -7.5062    1.0000 </r>
       <r>   -7.3592    1.0000 </r>
       <r>   -7.2839    1.0000 </r>
       <r>   -7.2318    1.0000 </r>
       <r>   -7.0953    1.0000 </r>
       <r>   -6.9991    1.0000 </r>
       <r>   -6.9885    1.0000 </r>
       <r>   -6.9422    1.0000 </r>
       <r>   -6.8983    1.0000 </r>
       <r>   -6.8543    1.0000 </r>
       <r>   -6.8388    1.0000 </r>
       <r>   -6.7847    1.0000 </r>
       <r>   -6.7696    1.0000 </r>
       <r>   -6.6818    1.0000 </r>
       <r>   -6.6108    1.0000 </r>
       <r>   -6.5885    1.0000 </r>
       <r>   -6.5705    1.0000 </r>
       <r>   -6.5536    1.0000 </r>
       <r>   -6.4370    1.0000 </r>
       <r>   -6.2212    1.0000 </r>
       <r>   -6.1841    1.0000 </r>
       <r>   -6.1501    1.0000 </r>
       <r>   -3.8940    0.0000 </r>
       <r>   -3.8467    0.0000 </r>
       <r>   -3.2977    0.0000 </r>
       <r>   -3.1276    0.0000 </r>
       <r>   -3.0159    0.0000 </r>
       <r>   -3.0044    0.0000 </r>
       <r>   -2.9123    0.0000 </r>
       <r>   -2.7516    0.0000 </r>
       <r>   -2.4689    0.0000 </r>
       <r>   -2.3861    0.0000 </r>
       <r>   -2.2277    0.0000 </r>
       <r>   -1.9632    0.0000 </r>
       <r>   -1.8040    0.0000 </r>
       <r>   -1.4573    0.0000 </r>
       <r>   -0.5229    0.0000 </r>
       <r>   -0.3427    0.0000 </r>
       <r>   -0.0897    0.0000 </r>
       <r>    0.4388    0.0000 </r>
       <r>    0.4632    0.0000 </r>
       <r>    0.5742    0.0000 </r>
       <r>    0.6949    0.0000 </r>
       <r>    0.8167    0.0000 </r>
       <r>    0.8632    0.0000 </r>
       <r>    0.9458    0.0000 </r>
       <r>    1.0982    0.0000 </r>
       <r>    1.2382    0.0000 </r>
       <r>    1.2743    0.0000 </r>
       <r>    1.4011    0.0000 </r>
       <r>    1.4185    0.0000 </r>
       <r>    1.4560    0.0000 </r>
       <r>    1.5535    0.0000 </r>
       <r>    1.6279    0.0000 </r>
       <r>    1.7373    0.0000 </r>
       <r>    1.7496    0.0000 </r>
       <r>    1.8941    0.0000 </r>
       <r>    2.0259    0.0000 </r>
       <r>    2.0348    0.0000 </r>
       <r>    2.0981    0.0000 </r>
       <r>    2.1107    0.0000 </r>
       <r>    2.1427    0.0000 </r>
       <r>    2.1586    0.0000 </r>
       <r>    2.1910    0.0000 </r>
       <r>    2.2757    0.0000 </r>
      </set>
      <set comment="kpoint 5">
       <r>  -30.7908    1.0000 </r>
       <r>  -30.7798    1.0000 </r>
       <r>  -30.6792    1.0000 </r>
       <r>  -30.6685    1.0000 </r>
       <r>  -30.5296    1.0000 </r>
       <r>  -30.5218    1.0000 </r>
       <r>  -26.4454    1.0000 </r>
       <r>  -26.4351    1.0000 </r>
       <r>  -26.3376    1.0000 </r>
       <r>  -26.3269    1.0000 </r>
       <r>  -26.2047    1.0000 </r>
       <r>  -26.2004    1.0000 </r>
       <r>  -26.1222    1.0000 </r>
       <r>  -26.1122    1.0000 </r>
       <r>  -23.3980    1.0000 </r>
       <r>  -23.3646    1.0000 </r>
       <r>  -23.1829    1.0000 </r>
       <r>  -23.1651    1.0000 </r>
       <r>  -22.6429    1.0000 </r>
       <r>  -22.4143    1.0000 </r>
       <r>  -22.3654    1.0000 </r>
       <r>  -20.9160    1.0000 </r>
       <r>  -20.8056    1.0000 </r>
       <r>  -20.6815    1.0000 </r>
       <r>  -20.1722    1.0000 </r>
       <r>  -19.9202    1.0000 </r>
       <r>  -19.8382    1.0000 </r>
       <r>  -18.9792    1.0000 </r>
       <r>  -18.7438    1.0000 </r>
       <r>  -18.6681    1.0000 </r>
       <r>  -18.1664    1.0000 </r>
       <r>  -17.9185    1.0000 </r>
       <r>  -17.1223    1.0000 </r>
       <r>  -17.0331    1.0000 </r>
       <r>  -16.6760    1.0000 </r>
       <r>  -16.2623    1.0000 </r>
       <r>  -16.0483    1.0000 </r>
       <r>  -16.0028    1.0000 </r>
       <r>  -15.8129    1.0000 </r>
       <r>  -15.5388    1.0000 </r>
       <r>  -15.2669    1.0000 </r>
       <r>  -14.6761    1.0000 </r>
       <r>  -14.4103    1.0000 </r>
       <r>  -14.1746    1.0000 </r>
       <r>  -13.7895    1.0000 </r>
       <r>  -13.7405    1.0000 </r>
       <r>  -13.6882    1.0000 </r>
       <r>  -13.5407    1.0000 </r>
       <r>  -13.3883    1.0000 </r>
       <r>  -13.3759    1.0000 </r>
       <r>  -13.3000    1.0000 </r>
       <r>  -13.2792    1.0000 </r>
       <r>  -13.1842    1.0000 </r>
       <r>  -13.0888    1.0000 </r>
       <r>  -13.0398    1.0000 </r>
       <r>  -12.8044    1.0000 </r>
       <r>  -12.6528    1.0000 </r>
       <r>  -12.6222    1.0000 </r>
       <r>  -12.4482    1.0000 </r>
       <r>  -12.3824    1.0000 </r>
       <r>  -12.3691    1.0000 </r>
       <r>  -12.3476    1.0000 </r>
       <r>  -12.2206    1.0000 </r>
       <r>  -12.0496    1.0000 </r>
       <r>  -11.9570    1.0000 </r>
       <r>  -11.7923    1.0000 </r>
       <r>  -11.7316    1.0000 </r>
       <r>  -11.6347    1.0000 </r>
       <r>  -11.4304    1.0000 </r>
       <r>  -11.3429    1.0000 </r>
       <r>  -11.3075    1.0000 </r>
       <r>  -11.2743    1.0000 </r>
       <r>  -11.0582    1.0000 </r>
       <r>  -10.9250    1.0000 </r>
       <r>  -10.8763    1.0000 </r>
       <r>  -10.7543    1.0000 </r>
       <r>  -10.5778    1.0000 </r>
       <r>  -10.4596    1.0000 </r>
       <r>  -10.2106    1.0000 </r>
       <r>   -9.9405    1.0000 </r>
       <r>   -9.8206    1.0000 </r>
       <r>   -9.5552    1.0000 </r>
       <r>   -9.4990    1.0000 </r>
       <r>   -9.3406    1.0000 </r>
       <r>   -9.2846    1.0000 </r>
       <r>   -9.2730    1.0000 </r>
       <r>   -9.1193    1.0000 </r>
       <r>   -8.5127    1.0000 </r>
       <r>   -8.4200    1.0000 </r>
       <r>   -7.9710    1.0000 </r>
       <r>   -7.8327    1.0000 </r>
       <r>   -7.6036    1.0000 </r>
       <r>   -7.5825    1.0000 </r>
       <r>   -7.5479    1.0000 </r>
       <r>   -7.5117    1.0000 </r>
       <r>   -7.5061    1.0000 </r>
       <r>   -7.3590    1.0000 </r>
       <r>   -7.2901    1.0000 </r>
       <r>   -7.2224    1.0000 </r>
       <r>   -7.0949    1.0000 </r>
       <r>   -6.9994    1.0000 </r>
       <r>   -6.9884    1.0000 </r>
       <r>   -6.9435    1.0000 </r>
       <r>   -6.8988    1.0000 </r>
       <r>   -6.8556    1.0000 </r>
       <r>   -6.8395    1.0000 </r>
       <r>   -6.7843    1.0000 </r>
       <r>   -6.7695    1.0000 </r>
       <r>   -6.6819    1.0000 </r>
       <r>   -6.6108    1.0000 </r>
       <r>   -6.5885    1.0000 </r>
       <r>   -6.5713    1.0000 </r>
       <r>   -6.5527    1.0000 </r>
       <r>   -6.4371    1.0000 </r>
       <r>   -6.2210    1.0000 </r>
       <r>   -6.1842    1.0000 </r>
       <r>   -6.1503    1.0000 </r>
       <r>   -3.8893    0.0000 </r>
       <r>   -3.8454    0.0000 </r>
       <r>   -3.3034    0.0000 </r>
       <r>   -3.1272    0.0000 </r>
       <r>   -3.0172    0.0000 </r>
       <r>   -3.0042    0.0000 </r>
       <r>   -2.9127    0.0000 </r>
       <r>   -2.7530    0.0000 </r>
       <r>   -2.5016    0.0000 </r>
       <r>   -2.3893    0.0000 </r>
       <r>   -2.1869    0.0000 </r>
       <r>   -1.9594    0.0000 </r>
       <r>   -1.8014    0.0000 </r>
       <r>   -1.4554    0.0000 </r>
       <r>   -0.5245    0.0000 </r>
       <r>   -0.3682    0.0000 </r>
       <r>   -0.0847    0.0000 </r>
       <r>    0.4307    0.0000 </r>
       <r>    0.4655    0.0000 </r>
       <r>    0.5972    0.0000 </r>
       <r>    0.6811    0.0000 </r>
       <r>    0.8204    0.0000 </r>
       <r>    0.8598    0.0000 </r>
       <r>    0.9634    0.0000 </r>
       <r>    1.1008    0.0000 </r>
       <r>    1.2400    0.0000 </r>
       <r>    1.2626    0.0000 </r>
       <r>    1.3877    0.0000 </r>
       <r>    1.4264    0.0000 </r>
       <r>    1.4458    0.0000 </r>
       <r>    1.5736    0.0000 </r>
       <r>    1.6581    0.0000 </r>
       <r>    1.7299    0.0000 </r>
       <r>    1.7575    0.0000 </r>
       <r>    1.8811    0.0000 </r>
       <r>    1.9971    0.0000 </r>
       <r>    2.0272    0.0000 </r>
       <r>    2.0862    0.0000 </r>
       <r>    2.1047    0.0000 </r>
       <r>    2.1480    0.0000 </r>
       <r>    2.1571    0.0000 </r>
       <r>    2.1794    0.0000 </r>
       <r>    2.2809    0.0000 </r>
      </set>
      <set comment="kpoint 6">
       <r>  -30.7908    1.0000 </r>
       <r>  -30.7798    1.0000 </r>
       <r>  -30.6792    1.0000 </r>
       <r>  -30.6685    1.0000 </r>
       <r>  -30.5296    1.0000 </r>
       <r>  -30.5218    1.0000 </r>
       <r>  -26.4454    1.0000 </r>
       <r>  -26.4351    1.0000 </r>
       <r>  -26.3376    1.0000 </r>
       <r>  -26.3269    1.0000 </r>
       <r>  -26.2047    1.0000 </r>
       <r>  -26.2004    1.0000 </r>
       <r>  -26.1221    1.0000 </r>
       <r>  -26.1123    1.0000 </r>
       <r>  -23.3963    1.0000 </r>
       <r>  -23.3644    1.0000 </r>
       <r>  -23.1861    1.0000 </r>
       <r>  -23.1655    1.0000 </r>
       <r>  -22.6382    1.0000 </r>
       <r>  -22.4170    1.0000 </r>
       <r>  -22.3658    1.0000 </r>
       <r>  -20.9141    1.0000 </r>
       <r>  -20.8070    1.0000 </r>
       <r>  -20.6813    1.0000 </r>
       <r>  -20.1688    1.0000 </r>
       <r>  -19.9225    1.0000 </r>
       <r>  -19.8449    1.0000 </r>
       <r>  -18.9711    1.0000 </r>
       <r>  -18.7405    1.0000 </r>
       <r>  -18.6710    1.0000 </r>
       <r>  -18.1658    1.0000 </r>
       <r>  -17.9162    1.0000 </r>
       <r>  -17.1350    1.0000 </r>
       <r>  -17.0506    1.0000 </r>
       <r>  -16.6534    1.0000 </r>
       <r>  -16.2628    1.0000 </r>
       <r>  -16.0478    1.0000 </r>
       <r>  -16.0035    1.0000 </r>
       <r>  -15.8088    1.0000 </r>
       <r>  -15.5413    1.0000 </r>
       <r>  -15.2563    1.0000 </r>
       <r>  -14.6662    1.0000 </r>
       <r>  -14.4112    1.0000 </r>
       <r>  -14.1948    1.0000 </r>
       <r>  -13.8116    1.0000 </r>
       <r>  -13.7506    1.0000 </r>
       <r>  -13.6973    1.0000 </r>
       <r>  -13.5303    1.0000 </r>
       <r>  -13.3907    1.0000 </r>
       <r>  -13.3805    1.0000 </r>
       <r>  -13.2899    1.0000 </r>
       <r>  -13.2762    1.0000 </r>
       <r>  -13.1730    1.0000 </r>
       <r>  -13.0690    1.0000 </r>
       <r>  -13.0394    1.0000 </r>
       <r>  -12.8035    1.0000 </r>
       <r>  -12.6522    1.0000 </r>
       <r>  -12.6198    1.0000 </r>
       <r>  -12.4477    1.0000 </r>
       <r>  -12.3820    1.0000 </r>
       <r>  -12.3692    1.0000 </r>
       <r>  -12.3474    1.0000 </r>
       <r>  -12.2208    1.0000 </r>
       <r>  -12.0500    1.0000 </r>
       <r>  -11.9556    1.0000 </r>
       <r>  -11.7948    1.0000 </r>
       <r>  -11.7304    1.0000 </r>
       <r>  -11.6325    1.0000 </r>
       <r>  -11.4486    1.0000 </r>
       <r>  -11.3446    1.0000 </r>
       <r>  -11.2997    1.0000 </r>
       <r>  -11.2727    1.0000 </r>
       <r>  -11.0610    1.0000 </r>
       <r>  -10.9317    1.0000 </r>
       <r>  -10.8773    1.0000 </r>
       <r>  -10.7494    1.0000 </r>
       <r>  -10.5795    1.0000 </r>
       <r>  -10.4557    1.0000 </r>
       <r>  -10.2166    1.0000 </r>
       <r>   -9.9280    1.0000 </r>
       <r>   -9.8371    1.0000 </r>
       <r>   -9.5546    1.0000 </r>
       <r>   -9.4885    1.0000 </r>
       <r>   -9.3367    1.0000 </r>
       <r>   -9.2847    1.0000 </r>
       <r>   -9.2701    1.0000 </r>
       <r>   -9.1185    1.0000 </r>
       <r>   -8.5223    1.0000 </r>
       <r>   -8.4211    1.0000 </r>
       <r>   -7.9696    1.0000 </r>
       <r>   -7.8324    1.0000 </r>
       <r>   -7.6039    1.0000 </r>
       <r>   -7.5817    1.0000 </r>
       <r>   -7.5471    1.0000 </r>
       <r>   -7.5117    1.0000 </r>
       <r>   -7.5061    1.0000 </r>
       <r>   -7.3587    1.0000 </r>
       <r>   -7.2960    1.0000 </r>
       <r>   -7.2126    1.0000 </r>
       <r>   -7.0944    1.0000 </r>
       <r>   -6.9997    1.0000 </r>
       <r>   -6.9882    1.0000 </r>
       <r>   -6.9452    1.0000 </r>
       <r>   -6.8996    1.0000 </r>
       <r>   -6.8572    1.0000 </r>
       <r>   -6.8402    1.0000 </r>
       <r>   -6.7838    1.0000 </r>
       <r>   -6.7694    1.0000 </r>
       <r>   -6.6820    1.0000 </r>
       <r>   -6.6107    1.0000 </r>
       <r>   -6.5884    1.0000 </r>
       <r>   -6.5723    1.0000 </r>
       <r>   -6.5517    1.0000 </r>
       <r>   -6.4371    1.0000 </r>
       <r>   -6.2208    1.0000 </r>
       <r>   -6.1842    1.0000 </r>
       <r>   -6.1505    1.0000 </r>
       <r>   -3.8835    0.0000 </r>
       <r>   -3.8437    0.0000 </r>
       <r>   -3.3108    0.0000 </r>
       <r>   -3.1267    0.0000 </r>
       <r>   -3.0188    0.0000 </r>
       <r>   -3.0040    0.0000 </r>
       <r>   -2.9132    0.0000 </r>
       <r>   -2.7549    0.0000 </r>
       <r>   -2.5321    0.0000 </r>
       <r>   -2.3933    0.0000 </r>
       <r>   -2.1464    0.0000 </r>
       <r>   -1.9547    0.0000 </r>
       <r>   -1.7978    0.0000 </r>
       <r>   -1.4527    0.0000 </r>
       <r>   -0.5269    0.0000 </r>
       <r>   -0.3984    0.0000 </r>
       <r>   -0.0784    0.0000 </r>
       <r>    0.4200    0.0000 </r>
       <r>    0.4683    0.0000 </r>
       <r>    0.6239    0.0000 </r>
       <r>    0.6691    0.0000 </r>
       <r>    0.8188    0.0000 </r>
       <r>    0.8610    0.0000 </r>
       <r>    0.9819    0.0000 </r>
       <r>    1.1028    0.0000 </r>
       <r>    1.2391    0.0000 </r>
       <r>    1.2560    0.0000 </r>
       <r>    1.3725    0.0000 </r>
       <r>    1.4307    0.0000 </r>
       <r>    1.4417    0.0000 </r>
       <r>    1.5974    0.0000 </r>
       <r>    1.6894    0.0000 </r>
       <r>    1.7201    0.0000 </r>
       <r>    1.7671    0.0000 </r>
       <r>    1.8682    0.0000 </r>
       <r>    1.9586    0.0000 </r>
       <r>    2.0227    0.0000 </r>
       <r>    2.0769    0.0000 </r>
       <r>    2.0990    0.0000 </r>
       <r>    2.1464    0.0000 </r>
       <r>    2.1636    0.0000 </r>
       <r>    2.1787    0.0000 </r>
       <r>    2.3008    0.0000 </r>
      </set>
      <set comment="kpoint 7">
       <r>  -30.7908    1.0000 </r>
       <r>  -30.7798    1.0000 </r>
       <r>  -30.6792    1.0000 </r>
       <r>  -30.6685    1.0000 </r>
       <r>  -30.5296    1.0000 </r>
       <r>  -30.5218    1.0000 </r>
       <r>  -26.4455    1.0000 </r>
       <r>  -26.4351    1.0000 </r>
       <r>  -26.3376    1.0000 </r>
       <r>  -26.3269    1.0000 </r>
       <r>  -26.2047    1.0000 </r>
       <r>  -26.2004    1.0000 </r>
       <r>  -26.1220    1.0000 </r>
       <r>  -26.1124    1.0000 </r>
       <r>  -23.3943    1.0000 </r>
       <r>  -23.3641    1.0000 </r>
       <r>  -23.1902    1.0000 </r>
       <r>  -23.1658    1.0000 </r>
       <r>  -22.6325    1.0000 </r>
[...]
       <r>    1.2345    0.0000 </r>
       <r>    1.3037    0.0000 </r>
       <r>    1.3835    0.0000 </r>
       <r>    1.4344    0.0000 </r>
       <r>    1.4958    0.0000 </r>
       <r>    1.5165    0.0000 </r>
       <r>    1.5713    0.0000 </r>
       <r>    1.7383    0.0000 </r>
       <r>    1.7470    0.0000 </r>
       <r>    1.9186    0.0000 </r>
       <r>    2.0121    0.0000 </r>
       <r>    2.1035    0.0000 </r>
       <r>    2.1230    0.0000 </r>
       <r>    2.1316    0.0000 </r>
       <r>    2.1548    0.0000 </r>
       <r>    2.1706    0.0000 </r>
       <r>    2.2469    0.0000 </r>
       <r>    2.2610    0.0000 </r>
      </set>
     </set>
    </set>
   </array>
  </eigenvalues>
  <separator name="orbital magnetization" >
   <v name="MAGDIPOLOUT">      0.00000000      0.00000000      0.00000000</v>
  </separator>
  <dos>
   <i name="efermi">     -6.03552735 </i>
   <total>
    <array>
     <dimension dim="1">gridpoints</dimension>
     <dimension dim="2">spin</dimension>
     <field>energy</field>
     <field>total</field>
     <field>integrated</field>
     <set>
      <set comment="spin 1">
       <r>   -32.4487     0.0000     0.0000 </r>
       <r>   -32.3271     0.0000     0.0000 </r>
       <r>   -32.2055     0.0000     0.0000 </r>
       <r>   -32.0839     0.0000     0.0000 </r>
       <r>   -31.9624     0.0000     0.0000 </r>
       <r>   -31.8408     0.0000     0.0000 </r>
       <r>   -31.7192     0.0000     0.0000 </r>
       <r>   -31.5976     0.0000     0.0000 </r>
       <r>   -31.4760     0.0000     0.0000 </r>
       <r>   -31.3545     0.0000     0.0000 </r>
       <r>   -31.2329     0.0000     0.0000 </r>
       <r>   -31.1113     0.0000     0.0000 </r>
       <r>   -30.9897     0.0000     0.0000 </r>
       <r>   -30.8681     0.0000     0.0000 </r>
       <r>   -30.7466    32.9003     4.0000 </r>
       <r>   -30.6250    32.9003     8.0000 </r>
       <r>   -30.5034    32.8236    11.9907 </r>
       <r>   -30.3818     0.0000    12.0000 </r>
       <r>   -30.2602     0.0000    12.0000 </r>
       <r>   -30.1387     0.0000    12.0000 </r>
       <r>   -30.0171     0.0000    12.0000 </r>
       <r>   -29.8955     0.0000    12.0000 </r>
       <r>   -29.7739     0.0000    12.0000 </r>
       <r>   -29.6523     0.0000    12.0000 </r>
       <r>   -29.5308     0.0000    12.0000 </r>
       <r>   -29.4092     0.0000    12.0000 </r>
       <r>   -29.2876     0.0000    12.0000 </r>
       <r>   -29.1660     0.0000    12.0000 </r>
       <r>   -29.0444     0.0000    12.0000 </r>
       <r>   -28.9229     0.0000    12.0000 </r>
       <r>   -28.8013     0.0000    12.0000 </r>
       <r>   -28.6797     0.0000    12.0000 </r>
       <r>   -28.5581     0.0000    12.0000 </r>
       <r>   -28.4365     0.0000    12.0000 </r>
       <r>   -28.3150     0.0000    12.0000 </r>
       <r>   -28.1934     0.0000    12.0000 </r>
       <r>   -28.0718     0.0000    12.0000 </r>
       <r>   -27.9502     0.0000    12.0000 </r>
       <r>   -27.8287     0.0000    12.0000 </r>
       <r>   -27.7071     0.0000    12.0000 </r>
       <r>   -27.5855     0.0000    12.0000 </r>
       <r>   -27.4639     0.0000    12.0000 </r>
       <r>   -27.3423     0.0000    12.0000 </r>
       <r>   -27.2208     0.0000    12.0000 </r>
       <r>   -27.0992     0.0000    12.0000 </r>
       <r>   -26.9776     0.0000    12.0000 </r>
       <r>   -26.8560     0.0000    12.0000 </r>
       <r>   -26.7344     0.0000    12.0000 </r>
       <r>   -26.6129     0.0000    12.0000 </r>
       <r>   -26.4913     0.0000    12.0000 </r>
       <r>   -26.3697    32.9003    16.0000 </r>
       <r>   -26.2481    16.4501    20.0000 </r>
       <r>   -26.1265    37.1219    24.5133 </r>
       <r>   -26.0050     0.0000    28.0000 </r>
       <r>   -25.8834     0.0000    28.0000 </r>
       <r>   -25.7618     0.0000    28.0000 </r>
       <r>   -25.6402     0.0000    28.0000 </r>
       <r>   -25.5186     0.0000    28.0000 </r>
       <r>   -25.3971     0.0000    28.0000 </r>
       <r>   -25.2755     0.0000    28.0000 </r>
       <r>   -25.1539     0.0000    28.0000 </r>
       <r>   -25.0323     0.0000    28.0000 </r>
       <r>   -24.9107     0.0000    28.0000 </r>
       <r>   -24.7892     0.0000    28.0000 </r>
       <r>   -24.6676     0.0000    28.0000 </r>
       <r>   -24.5460     0.0000    28.0000 </r>
       <r>   -24.4244     0.0000    28.0000 </r>
       <r>   -24.3028     0.0000    28.0000 </r>
       <r>   -24.1813     0.0000    28.0000 </r>
       <r>   -24.0597     0.0000    28.0000 </r>
       <r>   -23.9381     0.0000    28.0000 </r>
       <r>   -23.8165     0.0000    28.0000 </r>
       <r>   -23.6949     0.0000    28.0000 </r>
       <r>   -23.5734     0.0000    28.0000 </r>
       <r>   -23.4518     0.0000    28.0000 </r>
       <r>   -23.3302    28.1578    31.4234 </r>
       <r>   -23.2086    11.1857    33.3600 </r>
       <r>   -23.0871     9.5959    36.0000 </r>
       <r>   -22.9655     0.0000    36.0000 </r>
       <r>   -22.8439     0.0000    36.0000 </r>
       <r>   -22.7223     0.0000    36.0000 </r>
       <r>   -22.6007     5.7530    36.6994 </r>
       <r>   -22.4792    14.8365    38.8038 </r>
       <r>   -22.3576    21.6989    41.9048 </r>
       <r>   -22.2360     0.0000    42.0000 </r>
       <r>   -22.1144     0.0000    42.0000 </r>
       <r>   -21.9928     0.0000    42.0000 </r>
       <r>   -21.8713     0.0000    42.0000 </r>
       <r>   -21.7497     0.0000    42.0000 </r>
       <r>   -21.6281     0.0000    42.0000 </r>
       <r>   -21.5065     0.0000    42.0000 </r>
       <r>   -21.3849     0.0000    42.0000 </r>
       <r>   -21.2634     0.0000    42.0000 </r>
       <r>   -21.1418     0.0000    42.0000 </r>
       <r>   -21.0202     0.0000    42.0000 </r>
       <r>   -20.8986     6.1964    42.7534 </r>
       <r>   -20.7770    16.4498    46.0000 </r>
       <r>   -20.6555    16.4473    47.9996 </r>
       <r>   -20.5339     0.0000    48.0000 </r>
       <r>   -20.4123     0.0000    48.0000 </r>
       <r>   -20.2907     0.0000    48.0000 </r>
       <r>   -20.1691     3.2985    48.4010 </r>
       <r>   -20.0476     8.2178    49.9991 </r>
       <r>   -19.9260     8.7706    51.4997 </r>
       <r>   -19.8044     5.4819    53.9998 </r>
       <r>   -19.6828     0.0000    54.0000 </r>
       <r>   -19.5612     0.0000    54.0000 </r>
       <r>   -19.4397     0.0000    54.0000 </r>
       <r>   -19.3181     0.0000    54.0000 </r>
       <r>   -19.1965     0.0000    54.0000 </r>
       <r>   -19.0749     0.0000    54.0000 </r>
       <r>   -18.9533     4.6980    54.5712 </r>
       <r>   -18.8318     5.9236    55.5869 </r>
       <r>   -18.7102    13.5852    57.6517 </r>
       <r>   -18.5886     3.2900    60.0000 </r>
       <r>   -18.4670     0.0000    60.0000 </r>
       <r>   -18.3455     0.0000    60.0000 </r>
       <r>   -18.2239     0.0000    60.0000 </r>
       <r>   -18.1023    12.5153    61.5216 </r>
       <r>   -17.9807     0.5483    62.0000 </r>
       <r>   -17.8591     9.8890    63.2023 </r>
       <r>   -17.7376     0.0000    64.0000 </r>
       <r>   -17.6160     1.4933    64.1816 </r>
       <r>   -17.4944     2.0746    64.5856 </r>
       <r>   -17.3728     3.7630    65.1908 </r>
       <r>   -17.2512     1.2839    65.4561 </r>
       <r>   -17.1297     1.7170    65.7421 </r>
       <r>   -17.0081     9.0398    67.6991 </r>
       <r>   -16.8865     0.0000    68.0000 </r>
       <r>   -16.7649     0.0000    68.0000 </r>
       <r>   -16.6433     1.8844    68.3624 </r>
       <r>   -16.5218     1.8853    68.6959 </r>
       <r>   -16.4002     6.9875    69.7162 </r>
       <r>   -16.2786     5.6423    70.6860 </r>
       <r>   -16.1570     0.0000    72.0000 </r>
       <r>   -16.0354    12.7082    73.5451 </r>
       <r>   -15.9139     0.0000    76.0000 </r>
       <r>   -15.7923     3.9374    76.4787 </r>
       <r>   -15.6707     6.0133    77.4978 </r>
       <r>   -15.5491     7.6372    79.4285 </r>
       <r>   -15.4275     0.0000    80.0000 </r>
       <r>   -15.3060     0.0012    80.0001 </r>
       <r>   -15.1844     2.6385    80.6541 </r>
       <r>   -15.0628     1.5957    80.9607 </r>
       <r>   -14.9412     2.1569    81.4622 </r>
       <r>   -14.8196     7.0023    82.4847 </r>
       <r>   -14.6981     1.4921    83.0814 </r>
       <r>   -14.5765     3.2813    83.9989 </r>
       <r>   -14.4549     4.1641    84.5063 </r>
       <r>   -14.3333    10.6130    86.8237 </r>
       <r>   -14.2117     2.3807    87.6561 </r>
       <r>   -14.0902     5.4075    88.8908 </r>
       <r>   -13.9686     1.4715    89.1789 </r>
       <r>   -13.8470     1.4313    89.4740 </r>
       <r>   -13.7254    20.5862    92.3695 </r>
       <r>   -13.6039     2.2193    94.0032 </r>
       <r>   -13.4823     7.6893    95.7015 </r>
       <r>   -13.3607    23.6866    98.8798 </r>
       <r>   -13.2391    23.7501   102.4209 </r>
       <r>   -13.1175    24.6552   106.0976 </r>
       <r>   -12.9960     9.0196   108.4966 </r>
       <r>   -12.8744     1.8608   108.7929 </r>
       <r>   -12.7528    17.1103   111.5136 </r>
       <r>   -12.6312    16.8578   114.0496 </r>
       <r>   -12.5096     2.2714   114.9762 </r>
       <r>   -12.3881    23.4715   118.3203 </r>
       <r>   -12.2665    11.7072   123.9567 </r>
       <r>   -12.1449     6.5975   126.0021 </r>
       <r>   -12.0233    14.8048   128.0000 </r>
       <r>   -11.9017    17.7608   130.3927 </r>
       <r>   -11.7802    16.3684   133.1901 </r>
       <r>   -11.6586     4.3898   134.0004 </r>
       <r>   -11.5370    14.8165   136.3680 </r>
       <r>   -11.4154     7.2471   138.3811 </r>
       <r>   -11.2938    16.5809   141.1159 </r>
       <r>   -11.1723    12.6118   144.0000 </r>
       <r>   -11.0507    15.7457   145.9144 </r>
       <r>   -10.9291    13.5686   147.6497 </r>
       <r>   -10.8075     9.5959   150.0000 </r>
       <r>   -10.6859     9.8528   151.1979 </r>
       <r>   -10.5644    16.2952   153.9812 </r>
       <r>   -10.4428     5.0162   154.6099 </r>
       <r>   -10.3212     6.7935   156.0926 </r>
       <r>   -10.1996    10.3228   157.8550 </r>
       <r>   -10.0780     0.0000   158.0000 </r>
       <r>    -9.9565    10.9802   159.4016 </r>
       <r>    -9.8349     5.1953   160.3983 </r>
       <r>    -9.7133     8.5504   161.8395 </r>
       <r>    -9.5917     8.3183   163.0113 </r>
       <r>    -9.4701     4.3341   164.5269 </r>
       <r>    -9.3486     5.2770   166.1082 </r>
       <r>    -9.2270    21.5794   170.8903 </r>
       <r>    -9.1054     4.4030   172.4687 </r>
       <r>    -8.9838     4.6804   173.3024 </r>
       <r>    -8.8623     2.5879   173.8146 </r>
       <r>    -8.7407     4.0759   174.4956 </r>
       <r>    -8.6191     2.1594   175.2292 </r>
       <r>    -8.4975     4.1865   175.8757 </r>
       <r>    -8.3759    16.4501   178.0000 </r>
       <r>    -8.2544     0.0000   178.0000 </r>
       <r>    -8.1328     0.0000   178.0000 </r>
       <r>    -8.0112     0.0000   178.0000 </r>
       <r>    -7.8896    12.8859   180.0000 </r>
       <r>    -7.7680    16.4501   182.0000 </r>
       <r>    -7.6465     0.0000   182.0000 </r>
       <r>    -7.5249    38.8123   188.0188 </r>
       <r>    -7.4033     0.0000   192.0000 </r>
       <r>    -7.2817    31.1942   195.7926 </r>
       <r>    -7.1601     4.3347   196.6937 </r>
       <r>    -7.0386    20.4198   200.0160 </r>
       <r>    -6.9170    38.7982   207.2837 </r>
       <r>    -6.7954    34.1161   212.1478 </r>
       <r>    -6.6738    12.9106   217.5697 </r>
       <r>    -6.5522    52.0445   224.3275 </r>
       <r>    -6.4307    14.2565   227.7333 </r>
       <r>    -6.3091     0.0000   228.0000 </r>
       <r>    -6.1875    20.9127   230.5426 </r>
       <r>    -6.0659     0.0000   234.0000 </r>
       <r>    -5.9443     0.0000   234.0000 </r>
       <r>    -5.8228     0.0000   234.0000 </r>
       <r>    -5.7012     0.0000   234.0000 </r>
       <r>    -5.5796     0.0000   234.0000 </r>
       <r>    -5.4580     0.0000   234.0000 </r>
       <r>    -5.3364     0.0000   234.0000 </r>
       <r>    -5.2149     0.0000   234.0000 </r>
       <r>    -5.0933     0.0000   234.0000 </r>
       <r>    -4.9717     0.0000   234.0000 </r>
       <r>    -4.8501     0.0000   234.0000 </r>
       <r>    -4.7285     0.0000   234.0000 </r>
       <r>    -4.6070     0.0000   234.0000 </r>
       <r>    -4.4854     0.0000   234.0000 </r>
       <r>    -4.3638     0.0000   234.0000 </r>
       <r>    -4.2422     0.0000   234.0000 </r>
       <r>    -4.1207     0.0000   234.0000 </r>
       <r>    -3.9991     0.0000   234.0000 </r>
       <r>    -3.8775     5.3063   234.6451 </r>
       <r>    -3.7559     3.9500   236.8802 </r>
       <r>    -3.6343     4.0651   237.7609 </r>
       <r>    -3.5128     4.0726   238.4285 </r>
       <r>    -3.3912     2.3617   239.2538 </r>
       <r>    -3.2696     4.6592   239.9998 </r>
       <r>    -3.1480     0.0068   240.0008 </r>
       <r>    -3.0264    17.3580   243.4437 </r>
       <r>    -2.9049    15.6837   247.9068 </r>
       <r>    -2.7833    11.0440   249.3427 </r>
       <r>    -2.6617     9.8362   251.1959 </r>
       <r>    -2.5401     1.6771   251.6372 </r>
       <r>    -2.4185     9.8784   252.9343 </r>
       <r>    -2.2970     0.9345   254.1136 </r>
       <r>    -2.1754     1.0827   254.2983 </r>
       <r>    -2.0538     0.9390   254.4808 </r>
       <r>    -1.9322    12.2520   256.0229 </r>
       <r>    -1.8106     7.5628   257.9528 </r>
       <r>    -1.6891     2.3007   258.9130 </r>
       <r>    -1.5675     5.7575   260.0000 </r>
       <r>    -1.4459     4.1088   260.4995 </r>
       <r>    -1.3243     1.8671   261.0603 </r>
       <r>    -1.2027     5.9543   261.8906 </r>
       <r>    -1.0812     2.2726   262.2763 </r>
       <r>    -0.9596     2.7766   262.7376 </r>
       <r>    -0.8380     1.0643   263.0961 </r>
       <r>    -0.7164     0.7713   263.2604 </r>
       <r>    -0.5948     1.3451   263.4635 </r>
       <r>    -0.4733    10.4147   264.8329 </r>
       <r>    -0.3517     4.1960   265.7101 </r>
       <r>    -0.2301     0.8225   266.0000 </r>
       <r>    -0.1085     0.0524   266.0064 </r>
       <r>     0.0131     3.4884   266.8908 </r>
       <r>     0.1346     7.8910   268.0594 </r>
       <r>     0.2562     3.7889   268.9607 </r>
       <r>     0.3778     2.3560   269.3864 </r>
       <r>     0.4994    15.1551   271.4092 </r>
       <r>     0.6209    12.8264   273.8594 </r>
       <r>     0.7425     4.5624   274.5880 </r>
       <r>     0.8641    24.1780   277.6729 </r>
       <r>     0.9857    11.6719   280.3191 </r>
       <r>     1.1073    15.9434   282.4384 </r>
       <r>     1.2288    10.4828   284.8078 </r>
       <r>     1.3504    17.8325   288.0347 </r>
       <r>     1.4720    23.2624   292.3616 </r>
       <r>     1.5936    18.3547   295.5982 </r>
       <r>     1.7152    18.0933   298.5664 </r>
       <r>     1.8367    19.1518   302.4618 </r>
       <r>     1.9583    19.5693   306.2126 </r>
       <r>     2.0799    17.7194   309.8210 </r>
       <r>     2.2015    31.0699   315.6441 </r>
       <r>     2.3231    23.1822   319.6851 </r>
       <r>     2.4446     0.2742   320.0000 </r>
       <r>     2.5662     0.0000   320.0000 </r>
       <r>     2.6878     0.0000   320.0000 </r>
       <r>     2.8094     0.0000   320.0000 </r>
       <r>     2.9310     0.0000   320.0000 </r>
       <r>     3.0525     0.0000   320.0000 </r>
       <r>     3.1741     0.0000   320.0000 </r>
       <r>     3.2957     0.0000   320.0000 </r>
       <r>     3.4173     0.0000   320.0000 </r>
       <r>     3.5389     0.0000   320.0000 </r>
       <r>     3.6604     0.0000   320.0000 </r>
       <r>     3.7820     0.0000   320.0000 </r>
       <r>     3.9036     0.0000   320.0000 </r>
       <r>     4.0252     0.0000   320.0000 </r>
      </set>
     </set>
    </array>
   </total>
  </dos>
 </calculation>
 <structure name="finalpos" >
  <crystal>
   <varray name="basis" >
    <v>      14.55643960       0.02769111       0.00000000 </v>
    <v>      -7.25899091      12.59257763       0.00000000 </v>
    <v>       0.00000000       0.00000000      20.00000000 </v>
   </varray>
   <i name="volume">   3670.08210580 </i>
   <varray name="rec_basis" >
    <v>       0.06862287       0.03955765       0.00000000 </v>
    <v>      -0.00015090       0.07932487       0.00000000 </v>
    <v>       0.00000000       0.00000000       0.05000000 </v>
   </varray>
  </crystal>
  <varray name="positions" >
   <v>       0.89827550       0.59474704       0.48581988 </v>
   <v>       0.68955746       0.58931849       0.46768735 </v>
   <v>       0.67057603       0.10910784       0.56290613 </v>
   <v>       0.10354106       0.40964407       0.51898460 </v>
   <v>       0.31326999       0.41678356       0.53840025 </v>
   <v>       0.33010419       0.89629277       0.44103614 </v>
   <v>       0.46151222       0.05182195       0.46112223 </v>
   <v>       0.61580364       0.38707248       0.50268978 </v>
   <v>       0.61565693       0.23186478       0.49449077 </v>
   <v>       0.77102872       0.38646071       0.50140226 </v>
   <v>       0.38655505       0.61862452       0.50267299 </v>
   <v>       0.38585451       0.77358517       0.50915782 </v>
   <v>       0.23088544       0.61836745       0.50336688 </v>
   <v>       0.11372548       0.56047764       0.50153255 </v>
   <v>       0.05300879       0.61034442       0.49201533 </v>
   <v>       0.94324832       0.55405325       0.49329394 </v>
   <v>       0.44581134       0.56038654       0.50067359 </v>
   <v>       0.55246381       0.60668676       0.48110978 </v>
   <v>       0.60720806       0.55130908       0.48370453 </v>
   <v>       0.44334557       0.89108836       0.50896887 </v>
   <v>       0.53917841       0.95371796       0.54285057 </v>
   <v>       0.59657326       0.06319308       0.53551575 </v>
   <v>       0.88816916       0.44402916       0.50337537 </v>
   <v>       0.94883676       0.39409772       0.51284763 </v>
   <v>       0.05861966       0.45040764       0.51158635 </v>
   <v>       0.55701085       0.44574368       0.50538538 </v>
   <v>       0.45053867       0.39963628       0.52533135 </v>
   <v>       0.39566902       0.45484728       0.52248187 </v>
   <v>       0.55765897       0.11437058       0.49468757 </v>
   <v>       0.40422419       0.94227638       0.46830391 </v>
   <v>       0.55881118       0.28124087       0.49727269 </v>
   <v>       0.72156669       0.28054069       0.49610054 </v>
   <v>       0.72207474       0.44398905       0.50461717 </v>
   <v>       0.44311772       0.72459927       0.50684378 </v>
   <v>       0.27998460       0.72447135       0.50737448 </v>
   <v>       0.28026036       0.56117122       0.50138760 </v>
   <v>       0.10120583       0.72515147       0.47683114 </v>
   <v>       0.61143956       0.71475747       0.45213957 </v>
   <v>       0.57894839       0.90665127       0.59291222 </v>
   <v>       0.90037083       0.27916166       0.52778185 </v>
   <v>       0.39228152       0.29215432       0.55516066 </v>
   <v>       0.42119296       0.09938078       0.41179464 </v>
   <v>       0.09659552       0.78170400       0.52100682 </v>
   <v>       0.13706322       0.75287212       0.41972608 </v>
   <v>       0.69259904       0.77921950       0.48170246 </v>
   <v>       0.57676517       0.72930445       0.39918037 </v>
   <v>       0.51165769       0.83654185       0.62940795 </v>
   <v>       0.67562709       0.94352797       0.59592336 </v>
   <v>       0.90728943       0.22328062       0.48401596 </v>
   <v>       0.86156478       0.25045984       0.58414273 </v>
   <v>       0.30921137       0.22769962       0.52735401 </v>
   <v>       0.42957785       0.27806119       0.60713917 </v>
   <v>       0.48776371       0.16758728       0.37400467 </v>
   <v>       0.32480321       0.06499500       0.41080566 </v>
  </varray>
 </structure>
</modeling>
