<?xml version="1.0" encoding="ISO-8859-1"?>
<modeling>
 <generator>
  <i name="program" type="string">vasp </i>
  <i name="version" type="string">5.4.4.18Apr17-6-g9f103f2a35  </i>
  <i name="subversion" type="string">(build Jun 07 2020 16:50:00) complex            parallel </i>
  <i name="platform" type="string">LinuxIFC </i>
  <i name="date" type="string">2023 03 05 </i>
  <i name="time" type="string">09:01:17 </i>
 </generator>
 <incar>
  <i type="string" name="SYSTEM">Simulation for cell shape cell volume r</i>
  <i type="int" name="ISTART">     1</i>
  <i type="string" name="PREC">high</i>
  <i type="string" name="ALGO">48</i>
  <i type="int" name="ICHARG">    11</i>
  <i type="int" name="NELM">   200</i>
  <i type="int" name="IBRION">    -1</i>
  <i name="EDIFF">      0.00001000</i>
  <i name="EDIFFG">     -0.01000000</i>
  <i type="int" name="NSW">     0</i>
  <i type="int" name="ISIF">     2</i>
  <i name="ENCUT">    500.00000000</i>
  <i name="POTIM">      0.30000000</i>
  <i type="string" name="LREAL">A</i>
  <i type="int" name="ISMEAR">     0</i>
  <i name="SIGMA">      0.01000000</i>
  <i type="int" name="NWRITE">     0</i>
  <i type="logical" name="LWAVE"> F  </i>
  <i type="logical" name="LCHARG"> F  </i>
  <v type="int" name="KPOINT_BSE">    -1     0     0     0</v>
  <i type="int" name="NELM">   200</i>
  <i type="string" name="GGA">PE</i>
 </incar>
 <structure name="primitive_cell" >
  <crystal>
   <varray name="basis" >
    <v>      21.84813196       0.00729268       0.00000000 </v>
    <v>     -10.91754403      18.82112240       0.00000000 </v>
    <v>       0.00000000       0.00000000      20.00000000 </v>
   </varray>
   <i name="volume">   8225.71967748 </i>
   <varray name="rec_basis" >
    <v>       0.04576164       0.02654490       0.00000000 </v>
    <v>      -0.00001773       0.05312151       0.00000000 </v>
    <v>       0.00000000       0.00000000       0.05000000 </v>
   </varray>
  </crystal>
  <varray name="positions" >
   <v>       0.48733633       0.30593322       0.46947648 </v>
   <v>      -0.45063413       0.35472570       0.47021987 </v>
   <v>       0.43077135       0.36455275       0.48813636 </v>
   <v>      -0.42715382       0.42566285       0.47714971 </v>
   <v>      -0.38910159       0.34090082       0.46593974 </v>
   <v>      -0.40466389       0.27317001       0.46576402 </v>
   <v>       0.45983932       0.42194767       0.49501505 </v>
   <v>      -0.46599937       0.45943223       0.48980543 </v>
   <v>      -0.37318328       0.45663357       0.47589658 </v>
   <v>      -0.32316920       0.39750054       0.46594364 </v>
   <v>      -0.46397304       0.16416888       0.47572670 </v>
   <v>      -0.34845222       0.26354894       0.46706260 </v>
   <v>       0.42479246       0.45890972      -0.49094523 </v>
   <v>      -0.42829202      -0.46644810       0.49863037 </v>
   <v>       0.33167319       0.37532642      -0.49203978 </v>
   <v>      -0.27127127       0.38195002       0.46738990 </v>
   <v>      -0.43355366       0.14057719       0.47751954 </v>
   <v>       0.42990231       0.06108660       0.49412891 </v>
   <v>      -0.37070475      -0.43747313       0.49475177 </v>
   <v>       0.35265030       0.42623825      -0.48507913 </v>
   <v>      -0.28100360       0.31577351       0.46800729 </v>
   <v>      -0.36268739       0.18774863       0.47144765 </v>
   <v>       0.46222223      -0.46642871      -0.48213131 </v>
   <v>      -0.46364985      -0.42979677      -0.48744017 </v>
   <v>       0.45825244       0.03186607       0.49864972 </v>
   <v>      -0.46787930       0.06769851       0.49031357 </v>
   <v>      -0.19565811       0.44348174       0.47207003 </v>
   <v>      -0.31437682       0.17397316       0.47133183 </v>
   <v>      -0.18141271      -0.49404378       0.47055057 </v>
   <v>      -0.43482198      -0.37253239      -0.48049306 </v>
   <v>       0.42194963      -0.43433183      -0.46992644 </v>
   <v>       0.36806404      -0.46672009      -0.46913913 </v>
   <v>      -0.17315167       0.36489001       0.47877932 </v>
   <v>       0.42105213      -0.04030692      -0.48704139 </v>
   <v>      -0.14923136       0.41915860       0.47988176 </v>
   <v>      -0.43120028       0.03023862       0.49626545 </v>
   <v>       0.36398403      -0.06827132      -0.48043010 </v>
   <v>      -0.37399727       0.05809238       0.48975810 </v>
   <v>       0.44466999      -0.36359807      -0.46213658 </v>
   <v>       0.45686921      -0.07857966      -0.48094865 </v>
   <v>      -0.46872500      -0.04193621      -0.48938799 </v>
   <v>      -0.49354805      -0.31453578      -0.46022094 </v>
   <v>      -0.07658026       0.45743938       0.49229653 </v>
   <v>      -0.06618062      -0.43830120       0.49100450 </v>
   <v>       0.31700050      -0.40789208      -0.45846217 </v>
   <v>       0.38249511      -0.35075049      -0.45813627 </v>
   <v>      -0.03876987      -0.46811365       0.49765982 </v>
   <v>      -0.07083388       0.36098546       0.49658525 </v>
   <v>      -0.04132006       0.41878567      -0.49929631 </v>
   <v>       0.42426202      -0.15121036      -0.46843522 </v>
   <v>      -0.43688803      -0.08219592      -0.48288513 </v>
   <v>       0.17595812       0.48229840      -0.46180387 </v>
   <v>       0.30491914      -0.18600343      -0.46069148 </v>
   <v>      -0.38611816      -0.05272023      -0.48979234 </v>
   <v>       0.35359569      -0.19913741      -0.46168973 </v>
   <v>       0.26447582      -0.39326217      -0.45826594 </v>
   <v>       0.39714061      -0.28333062      -0.45737696 </v>
   <v>       0.45622301      -0.17316809      -0.46718653 </v>
   <v>       0.18922700      -0.45558516      -0.46218612 </v>
   <v>       0.03320336      -0.43377261      -0.48847704 </v>
   <v>       0.03066339       0.45345458      -0.48557923 </v>
   <v>       0.04487398      -0.33964280      -0.48947068 </v>
   <v>       0.05827179       0.42394396      -0.47910537 </v>
   <v>       0.06925643      -0.47216392      -0.48003865 </v>
   <v>       0.07388142      -0.36142987      -0.48247410 </v>
   <v>       0.27318262      -0.32752085      -0.45780185 </v>
   <v>       0.34037579      -0.27466604      -0.45771068 </v>
   <v>       0.14167037      -0.43240784      -0.46801831 </v>
   <v>       0.16384337      -0.37825261      -0.46675926 </v>
  </varray>
 </structure>
 <varray name="primitive_index" >
  <v type="int" >        1 </v>
  <v type="int" >       43 </v>
  <v type="int" >       22 </v>
  <v type="int" >       19 </v>
  <v type="int" >       41 </v>
  <v type="int" >       12 </v>
  <v type="int" >       52 </v>
  <v type="int" >       61 </v>
  <v type="int" >       33 </v>
  <v type="int" >       11 </v>
  <v type="int" >       39 </v>
  <v type="int" >       59 </v>
  <v type="int" >       51 </v>
  <v type="int" >       62 </v>
  <v type="int" >       23 </v>
  <v type="int" >       40 </v>
  <v type="int" >       21 </v>
  <v type="int" >       38 </v>
  <v type="int" >       32 </v>
  <v type="int" >        7 </v>
  <v type="int" >       10 </v>
  <v type="int" >       44 </v>
  <v type="int" >       50 </v>
  <v type="int" >       63 </v>
  <v type="int" >       68 </v>
  <v type="int" >       67 </v>
  <v type="int" >       42 </v>
  <v type="int" >        2 </v>
  <v type="int" >        3 </v>
  <v type="int" >       31 </v>
  <v type="int" >       16 </v>
  <v type="int" >       24 </v>
  <v type="int" >       36 </v>
  <v type="int" >       69 </v>
  <v type="int" >       20 </v>
  <v type="int" >       58 </v>
  <v type="int" >       37 </v>
  <v type="int" >       28 </v>
  <v type="int" >       48 </v>
  <v type="int" >       56 </v>
  <v type="int" >       57 </v>
  <v type="int" >        4 </v>
  <v type="int" >       64 </v>
  <v type="int" >       25 </v>
  <v type="int" >       14 </v>
  <v type="int" >       46 </v>
  <v type="int" >       55 </v>
  <v type="int" >       35 </v>
  <v type="int" >       65 </v>
  <v type="int" >       18 </v>
  <v type="int" >        9 </v>
  <v type="int" >        6 </v>
  <v type="int" >        5 </v>
  <v type="int" >       29 </v>
  <v type="int" >       49 </v>
  <v type="int" >       45 </v>
  <v type="int" >       15 </v>
  <v type="int" >       30 </v>
  <v type="int" >       47 </v>
  <v type="int" >       54 </v>
  <v type="int" >       66 </v>
  <v type="int" >       26 </v>
  <v type="int" >       34 </v>
  <v type="int" >       53 </v>
  <v type="int" >        8 </v>
  <v type="int" >       13 </v>
  <v type="int" >       60 </v>
  <v type="int" >       17 </v>
  <v type="int" >       27 </v>
 </varray>
 <kpoints>
  <generation param="listgenerated">
   <i name="divisions" type="int">      20 </i>
   <v>       0.00000000       0.00000000       0.00000000 </v>
   <v>       0.50000000       0.00000000       0.00000000 </v>
   <v>       0.33333333       0.33333333       0.00000000 </v>
   <v>       0.00000000       0.00000000       0.00000000 </v>
  </generation>
  <varray name="kpointlist" >
   <v>       0.00000000       0.00000000       0.00000000 </v>
   <v>       0.02631579       0.00000000       0.00000000 </v>
   <v>       0.05263158       0.00000000       0.00000000 </v>
   <v>       0.07894737       0.00000000       0.00000000 </v>
   <v>       0.10526316       0.00000000       0.00000000 </v>
   <v>       0.13157895       0.00000000       0.00000000 </v>
   <v>       0.15789474       0.00000000       0.00000000 </v>
   <v>       0.18421053       0.00000000       0.00000000 </v>
   <v>       0.21052632       0.00000000       0.00000000 </v>
   <v>       0.23684211       0.00000000       0.00000000 </v>
   <v>       0.26315789       0.00000000       0.00000000 </v>
   <v>       0.28947368       0.00000000       0.00000000 </v>
   <v>       0.31578947       0.00000000       0.00000000 </v>
   <v>       0.34210526       0.00000000       0.00000000 </v>
   <v>       0.36842105       0.00000000       0.00000000 </v>
   <v>       0.39473684       0.00000000       0.00000000 </v>
   <v>       0.42105263       0.00000000       0.00000000 </v>
   <v>       0.44736842       0.00000000       0.00000000 </v>
   <v>       0.47368421       0.00000000       0.00000000 </v>
   <v>       0.50000000       0.00000000       0.00000000 </v>
   <v>       0.50000000       0.00000000       0.00000000 </v>
   <v>       0.49122807       0.01754386       0.00000000 </v>
   <v>       0.48245614       0.03508772       0.00000000 </v>
   <v>       0.47368421       0.05263158       0.00000000 </v>
   <v>       0.46491228       0.07017544       0.00000000 </v>
   <v>       0.45614035       0.08771930       0.00000000 </v>
   <v>       0.44736842       0.10526316       0.00000000 </v>
   <v>       0.43859649       0.12280702       0.00000000 </v>
   <v>       0.42982456       0.14035088       0.00000000 </v>
   <v>       0.42105263       0.15789474       0.00000000 </v>
   <v>       0.41228070       0.17543860       0.00000000 </v>
   <v>       0.40350877       0.19298246       0.00000000 </v>
   <v>       0.39473684       0.21052632       0.00000000 </v>
   <v>       0.38596491       0.22807018       0.00000000 </v>
   <v>       0.37719298       0.24561404       0.00000000 </v>
   <v>       0.36842105       0.26315789       0.00000000 </v>
   <v>       0.35964912       0.28070175       0.00000000 </v>
   <v>       0.35087719       0.29824561       0.00000000 </v>
   <v>       0.34210526       0.31578947       0.00000000 </v>
   <v>       0.33333333       0.33333333       0.00000000 </v>
   <v>       0.33333333       0.33333333       0.00000000 </v>
   <v>       0.31578947       0.31578947       0.00000000 </v>
   <v>       0.29824561       0.29824561       0.00000000 </v>
   <v>       0.28070175       0.28070175       0.00000000 </v>
   <v>       0.26315789       0.26315789       0.00000000 </v>
   <v>       0.24561404       0.24561404       0.00000000 </v>
   <v>       0.22807018       0.22807018       0.00000000 </v>
   <v>       0.21052632       0.21052632       0.00000000 </v>
   <v>       0.19298246       0.19298246       0.00000000 </v>
   <v>       0.17543860       0.17543860       0.00000000 </v>
   <v>       0.15789474       0.15789474       0.00000000 </v>
   <v>       0.14035088       0.14035088       0.00000000 </v>
   <v>       0.12280702       0.12280702       0.00000000 </v>
   <v>       0.10526316       0.10526316       0.00000000 </v>
   <v>       0.08771930       0.08771930       0.00000000 </v>
   <v>       0.07017544       0.07017544       0.00000000 </v>
   <v>       0.05263158       0.05263158       0.00000000 </v>
   <v>       0.03508772       0.03508772       0.00000000 </v>
   <v>       0.01754386       0.01754386       0.00000000 </v>
   <v>       0.00000000       0.00000000       0.00000000 </v>
  </varray>
  <varray name="weights" >
   <v>       0.01666667 </v>
   <v>       0.01666667 </v>
   <v>       0.01666667 </v>
   <v>       0.01666667 </v>
   <v>       0.01666667 </v>
   <v>       0.01666667 </v>
   <v>       0.01666667 </v>
   <v>       0.01666667 </v>
   <v>       0.01666667 </v>
   <v>       0.01666667 </v>
   <v>       0.01666667 </v>
   <v>       0.01666667 </v>
   <v>       0.01666667 </v>
   <v>       0.01666667 </v>
   <v>       0.01666667 </v>
   <v>       0.01666667 </v>
   <v>       0.01666667 </v>
   <v>       0.01666667 </v>
   <v>       0.01666667 </v>
   <v>       0.01666667 </v>
   <v>       0.01666667 </v>
   <v>       0.01666667 </v>
   <v>       0.01666667 </v>
   <v>       0.01666667 </v>
   <v>       0.01666667 </v>
   <v>       0.01666667 </v>
   <v>       0.01666667 </v>
   <v>       0.01666667 </v>
   <v>       0.01666667 </v>
   <v>       0.01666667 </v>
   <v>       0.01666667 </v>
   <v>       0.01666667 </v>
   <v>       0.01666667 </v>
   <v>       0.01666667 </v>
   <v>       0.01666667 </v>
   <v>       0.01666667 </v>
   <v>       0.01666667 </v>
   <v>       0.01666667 </v>
   <v>       0.01666667 </v>
   <v>       0.01666667 </v>
   <v>       0.01666667 </v>
   <v>       0.01666667 </v>
   <v>       0.01666667 </v>
   <v>       0.01666667 </v>
   <v>       0.01666667 </v>
   <v>       0.01666667 </v>
   <v>       0.01666667 </v>
   <v>       0.01666667 </v>
   <v>       0.01666667 </v>
   <v>       0.01666667 </v>
   <v>       0.01666667 </v>
   <v>       0.01666667 </v>
   <v>       0.01666667 </v>
   <v>       0.01666667 </v>
   <v>       0.01666667 </v>
   <v>       0.01666667 </v>
   <v>       0.01666667 </v>
   <v>       0.01666667 </v>
   <v>       0.01666667 </v>
   <v>       0.01666667 </v>
  </varray>
 </kpoints>
 <parameters>
  <separator name="general" >
   <i type="string" name="SYSTEM">Simulation for cell shape cell volume r</i>
   <i type="logical" name="LCOMPAT"> F  </i>
  </separator>
  <separator name="electronic" >
   <i type="string" name="PREC">high</i>
   <i name="ENMAX">    500.00000000</i>
   <i name="ENAUG">    644.87300000</i>
   <i name="EDIFF">      0.00001000</i>
   <i type="int" name="IALGO">    38</i>
   <i type="int" name="IWAVPR">    10</i>
   <i type="int" name="NBANDS">   176</i>
   <i name="NELECT">    252.00000000</i>
   <i type="int" name="TURBO">     0</i>
   <i type="int" name="IRESTART">     0</i>
   <i type="int" name="NREBOOT">     0</i>
   <i type="int" name="NMIN">     0</i>
   <i name="EREF">      0.00000000</i>
   <separator name="electronic smearing" >
    <i type="int" name="ISMEAR">     0</i>
    <i name="SIGMA">      0.01000000</i>
    <i name="KSPACING">      0.50000000</i>
    <i type="logical" name="KGAMMA"> T  </i>
   </separator>
   <separator name="electronic projectors" >
    <i type="logical" name="LREAL"> T  </i>
    <v name="ROPT">     -0.00040000     -0.00040000     -0.00040000     -0.00040000</v>
    <i type="int" name="LMAXPAW">  -100</i>
    <i type="int" name="LMAXMIX">     2</i>
    <i type="logical" name="NLSPLINE"> F  </i>
   </separator>
   <separator name="electronic startup" >
    <i type="int" name="ISTART">     1</i>
    <i type="int" name="ICHARG">    11</i>
    <i type="int" name="INIWAV">     1</i>
   </separator>
   <separator name="electronic spin" >
    <i type="int" name="ISPIN">     1</i>
    <i type="logical" name="LNONCOLLINEAR"> F  </i>
    <v name="MAGMOM">      1.00000000      1.00000000      1.00000000      1.00000000      1.00000000      1.00000000      1.00000000      1.00000000      1.00000000      1.00000000      1.00000000      1.00000000      1.00000000      1.00000000      1.00000000      1.00000000      1.00000000      1.00000000      1.00000000      1.00000000
      1.00000000      1.00000000      1.00000000      1.00000000      1.00000000      1.00000000      1.00000000      1.00000000      1.00000000      1.00000000      1.00000000      1.00000000      1.00000000      1.00000000      1.00000000      1.00000000      1.00000000      1.00000000      1.00000000      1.00000000
      1.00000000      1.00000000      1.00000000      1.00000000      1.00000000      1.00000000      1.00000000      1.00000000      1.00000000      1.00000000      1.00000000      1.00000000      1.00000000      1.00000000      1.00000000      1.00000000      1.00000000      1.00000000      1.00000000      1.00000000
      1.00000000      1.00000000      1.00000000      1.00000000      1.00000000      1.00000000      1.00000000      1.00000000      1.00000000</v>
    <i name="NUPDOWN">     -1.00000000</i>
    <i type="logical" name="LSORBIT"> F  </i>
    <v name="SAXIS">      0.00000000      0.00000000      1.00000000</v>
    <i type="logical" name="LSPIRAL"> F  </i>
    <v name="QSPIRAL">      0.00000000      0.00000000      0.00000000</v>
    <i type="logical" name="LZEROZ"> F  </i>
   </separator>
   <separator name="electronic exchange-correlation" >
    <i type="logical" name="LASPH"> F  </i>
    <i type="logical" name="LMETAGGA"> F  </i>
   </separator>
   <separator name="electronic convergence" >
    <i type="int" name="NELM">   200</i>
    <i type="int" name="NELMDL">     0</i>
    <i type="int" name="NELMIN">     2</i>
    <i name="ENINI">    500.00000000</i>
    <separator name="electronic convergence detail" >
     <i type="logical" name="LDIAG"> T  </i>
     <i type="logical" name="LSUBROT"> F  </i>
     <i name="WEIMIN">      0.00000000</i>
     <i name="EBREAK">      0.00000001</i>
     <i name="DEPER">      0.30000000</i>
     <i type="int" name="NRMM">     4</i>
     <i name="TIME">      0.40000000</i>
    </separator>
   </separator>
   <separator name="electronic mixer" >
    <i name="AMIX">      0.40000000</i>
    <i name="BMIX">      1.00000000</i>
    <i name="AMIN">      0.10000000</i>
    <i name="AMIX_MAG">      1.60000000</i>
    <i name="BMIX_MAG">      1.00000000</i>
    <separator name="electronic mixer details" >
     <i type="int" name="IMIX">     4</i>
     <i type="logical" name="MIXFIRST"> F  </i>
     <i type="int" name="MAXMIX">   -45</i>
     <i name="WC">    100.00000000</i>
     <i type="int" name="INIMIX">     1</i>
     <i type="int" name="MIXPRE">     1</i>
     <i type="int" name="MREMOVE">     5</i>
    </separator>
   </separator>
   <separator name="electronic dipolcorrection" >
    <i type="logical" name="LDIPOL"> F  </i>
    <i type="logical" name="LMONO"> F  </i>
    <i type="int" name="IDIPOL">     0</i>
    <i name="EPSILON">      1.00000000</i>
    <v name="DIPOL">   -100.00000000   -100.00000000   -100.00000000</v>
    <i name="EFIELD">      0.00000000</i>
   </separator>
  </separator>
  <separator name="grids" >
   <i type="int" name="NGX">   160</i>
   <i type="int" name="NGY">   160</i>
   <i type="int" name="NGZ">   150</i>
   <i type="int" name="NGXF">   250</i>
   <i type="int" name="NGYF">   240</i>
   <i type="int" name="NGZF">   224</i>
   <i type="logical" name="ADDGRID"> F  </i>
  </separator>
  <separator name="ionic" >
   <i type="int" name="NSW">     0</i>
   <i type="int" name="IBRION">    -1</i>
   <i type="int" name="MDALGO">     0</i>
   <i type="int" name="ISIF">     2</i>
   <i name="PSTRESS">      0.00000000</i>
   <i name="EDIFFG">     -0.01000000</i>
   <i type="int" name="NFREE">     0</i>
   <i name="POTIM">      0.30000000</i>
   <i name="SMASS">     -3.00000000</i>
   <i name="SCALEE">      1.00000000</i>
  </separator>
  <separator name="ionic md" >
   <i name="TEBEG">      0.00010000</i>
   <i name="TEEND">      0.00010000</i>
   <i type="int" name="NBLOCK">     1</i>
   <i type="int" name="KBLOCK">     1</i>
   <i type="int" name="NPACO">   256</i>
   <i name="APACO">     16.00000000</i>
  </separator>
  <separator name="symmetry" >
   <i type="int" name="ISYM">     2</i>
   <i name="SYMPREC">      0.00001000</i>
  </separator>
  <separator name="dos" >
   <i type="int" name="LORBIT">     0</i>
   <v name="RWIGS">     -1.00000000     -1.00000000     -1.00000000     -1.00000000</v>
   <i type="int" name="NEDOS">   301</i>
   <i name="EMIN">     10.00000000</i>
   <i name="EMAX">    -10.00000000</i>
   <i name="EFERMI">      0.00000000</i>
  </separator>
  <separator name="writing" >
   <i type="int" name="NWRITE">     0</i>
   <i type="logical" name="LWAVE"> F  </i>
   <i type="logical" name="LDOWNSAMPLE"> F  </i>
   <i type="logical" name="LCHARG"> F  </i>
   <i type="logical" name="LPARD"> F  </i>
   <i type="logical" name="LVTOT"> F  </i>
   <i type="logical" name="LVHAR"> F  </i>
   <i type="logical" name="LELF"> F  </i>
   <i type="logical" name="LOPTICS"> F  </i>
   <v name="STM">      0.00000000      0.00000000      0.00000000      0.00000000      0.00000000      0.00000000      0.00000000</v>
  </separator>
  <separator name="performance" >
   <i type="int" name="NPAR">    16</i>
   <i type="int" name="NSIM">     4</i>
   <i type="int" name="NBLK">    -1</i>
   <i type="logical" name="LPLANE"> T  </i>
   <i type="logical" name="LSCALAPACK"> T  </i>
   <i type="logical" name="LSCAAWARE"> F  </i>
   <i type="logical" name="LSCALU"> F  </i>
   <i type="logical" name="LASYNC"> F  </i>
   <i type="logical" name="LORBITALREAL"> F  </i>
  </separator>
  <separator name="miscellaneous" >
   <i type="int" name="IDIOT">     3</i>
   <i type="int" name="ISPECIAL">     0</i>
   <i type="logical" name="LMUSIC"> F  </i>
   <v name="POMASS">     16.00000000     14.00100000      1.00000000     12.01100000</v>
   <v name="DARWINR">      0.00000000      0.00000000      0.00000000      0.00000000</v>
   <v name="DARWINV">      1.00000000      1.00000000      1.00000000      1.00000000</v>
   <i type="logical" name="LCORR"> T  </i>
  </separator>
  <i type="logical" name="GGA_COMPAT"> T  </i>
  <i type="logical" name="LBERRY"> F  </i>
  <i type="int" name="ICORELEVEL">     0</i>
  <i type="logical" name="LDAU"> F  </i>
  <i type="int" name="I_CONSTRAINED_M">     0</i>
  <separator name="electronic exchange-correlation" >
   <i type="string" name="GGA">PE</i>
   <i type="int" name="VOSKOWN">     0</i>
   <i type="logical" name="LHFCALC"> F  </i>
   <i type="string" name="PRECFOCK"></i>
   <i type="logical" name="LSYMGRAD"> F  </i>
   <i type="logical" name="LHFONE"> F  </i>
   <i type="logical" name="LRHFCALC"> F  </i>
   <i type="logical" name="LTHOMAS"> F  </i>
   <i type="logical" name="LMODELHF"> F  </i>
   <i name="ENCUT4O">     -1.00000000</i>
   <i type="int" name="EXXOEP">     0</i>
   <i type="int" name="FOURORBIT">     0</i>
   <i name="AEXX">      0.00000000</i>
   <i name="HFALPHA">      0.00000000</i>
   <i name="MCALPHA">      0.00000000</i>
   <i name="ALDAX">      1.00000000</i>
   <i name="AGGAX">      1.00000000</i>
   <i name="ALDAC">      1.00000000</i>
   <i name="AGGAC">      1.00000000</i>
   <i type="int" name="NKREDX">     1</i>
   <i type="int" name="NKREDY">     1</i>
   <i type="int" name="NKREDZ">     1</i>
   <i type="logical" name="SHIFTRED"> F  </i>
   <i type="logical" name="ODDONLY"> F  </i>
   <i type="logical" name="EVENONLY"> F  </i>
   <i type="int" name="LMAXFOCK">     0</i>
   <i type="int" name="NMAXFOCKAE">     0</i>
   <i type="logical" name="LFOCKAEDFT"> F  </i>
   <i name="HFSCREEN">      0.00000000</i>
   <i name="HFSCREENC">      0.00000000</i>
   <i type="int" name="NBANDSGWLOW">     0</i>
  </separator>
  <separator name="vdW DFT" >
   <i type="logical" name="LUSE_VDW"> F  </i>
   <i name="Zab_VDW">     -0.84910000</i>
   <i name="PARAM1">      0.12340000</i>
   <i name="PARAM2">      1.00000000</i>
   <i name="PARAM3">      0.00000000</i>
  </separator>
  <separator name="model GW" >
   <i type="int" name="MODEL_GW">     0</i>
   <i name="MODEL_EPS0">     71.52799720</i>
   <i name="MODEL_ALPHA">      1.00000000</i>
  </separator>
  <separator name="linear response parameters" >
   <i type="logical" name="LEPSILON"> F  </i>
   <i type="logical" name="LRPA"> F  </i>
   <i type="logical" name="LNABLA"> F  </i>
   <i type="logical" name="LVEL"> F  </i>
   <i type="int" name="KINTER">     0</i>
   <i name="CSHIFT">      0.10000000</i>
   <i name="OMEGAMAX">     -1.00000000</i>
   <i name="DEG_THRESHOLD">      0.00200000</i>
   <i name="RTIME">     -0.10000000</i>
   <i name="WPLASMAI">      0.00000000</i>
   <v name="DFIELD">      0.00000000      0.00000000      0.00000000</v>
   <v name="WPLASMA">      0.00000000      0.00000000      0.00000000      0.00000000      0.00000000      0.00000000      0.00000000      0.00000000      0.00000000</v>
  </separator>
  <separator name="orbital magnetization" >
   <i type="logical" name="NUCIND"> F  </i>
   <v name="MAGPOS">      0.00000000      0.00000000      0.00000000</v>
   <i type="logical" name="LNICSALL"> T  </i>
   <i type="logical" name="ORBITALMAG"> F  </i>
   <i type="logical" name="LMAGBLOCH"> F  </i>
   <i type="logical" name="LCHIMAG"> F  </i>
   <i type="logical" name="LGAUGE"> T  </i>
   <i type="int" name="MAGATOM">     0</i>
   <v name="MAGDIPOL">      0.00000000      0.00000000      0.00000000</v>
   <v name="AVECCONST">      0.00000000      0.00000000      0.00000000</v>
  </separator>
  <separator name="response functions" >
   <i type="logical" name="LADDER"> F  </i>
   <i type="logical" name="LRPAFORCE"> F  </i>
   <i type="logical" name="LFXC"> F  </i>
   <i type="logical" name="LHARTREE"> T  </i>
   <i type="int" name="IBSE">     0</i>
   <v type="int" name="KPOINT">    -1     0     0     0</v>
   <i type="logical" name="LTCTE"> F  </i>
   <i type="logical" name="LTETE"> F  </i>
   <i type="logical" name="LTRIPLET"> F  </i>
   <i type="logical" name="LFXCEPS"> F  </i>
   <i type="logical" name="LFXHEG"> F  </i>
   <i type="int" name="NATURALO">     2</i>
   <i type="logical" name="L2ORDER"> F  </i>
   <i type="logical" name="LMP2LT"> F  </i>
   <i type="logical" name="LUSEW"> F  </i>
   <i name="ENCUTGW">     -2.00000000</i>
   <i name="ENCUTGWSOFT">     -2.00000000</i>
   <i name="ENCUTLF">     -1.00000000</i>
   <i type="int" name="LMAXMP2">    -1</i>
   <i name="SCISSOR">      0.00000000</i>
   <i type="int" name="NOMEGA">     0</i>
   <i type="int" name="NOMEGAR">     0</i>
   <i type="int" name="NBANDSGW">    -1</i>
   <i type="int" name="NBANDSO">    -1</i>
   <i type="int" name="NBANDSV">    -1</i>
   <i type="int" name="NELM">   200</i>
   <i type="int" name="NELMHF">     1</i>
   <i type="int" name="DIM">     3</i>
   <i type="int" name="ANTIRES">     0</i>
   <i name="OMEGAMAX">    -30.00000000</i>
   <i name="OMEGAMIN">    -30.00000000</i>
   <i name="OMEGATL">   -200.00000000</i>
   <i type="int" name="OMEGAGRID">   140</i>
   <i name="CSHIFT">     -0.10000000</i>
   <i type="logical" name="SELFENERGY"> F  </i>
   <i type="logical" name="LSPECTRAL"> F  </i>
   <i type="logical" name="LSPECTRALGW"> F  </i>
   <i type="logical" name="LSINGLES"> F  </i>
   <i type="logical" name="LFERMIGW"> F  </i>
   <i type="logical" name="ODDONLYGW"> F  </i>
   <i type="logical" name="EVENONLYGW"> F  </i>
   <i type="int" name="NKREDLFX">     1</i>
   <i type="int" name="NKREDLFY">     1</i>
   <i type="int" name="NKREDLFZ">     1</i>
   <i type="int" name="MAXMEM">  2800</i>
   <i type="int" name="TELESCOPE">     0</i>
   <i type="int" name="TAUPAR">     1</i>
   <i type="int" name="OMEGAPAR">    -1</i>
   <i name="LAMBDA">      1.00000000</i>
  </separator>
  <separator name="External order field" >
   <i name="OFIELD_KAPPA">      0.00000000</i>
   <v name="OFIELD_K">      0.00000000      0.00000000      0.00000000</v>
   <i name="OFIELD_Q6_NEAR">      0.00000000</i>
   <i name="OFIELD_Q6_FAR">      0.00000000</i>
   <i name="OFIELD_A">      0.00000000</i>
  </separator>
  <separator name="solvation model" >
   <i type="logical" name="LSOL"> F  </i>
  </separator>
 </parameters>
 <atominfo>
  <atoms>      69 </atoms>
  <types>       4 </types>
  <array name="atoms" >
   <dimension dim="1">ion</dimension>
   <field type="string">element</field>
   <field type="int">atomtype</field>
   <set>
    <rc><c>O </c><c>   1</c></rc>
    <rc><c>O </c><c>   1</c></rc>
    <rc><c>O </c><c>   1</c></rc>
    <rc><c>O </c><c>   1</c></rc>
    <rc><c>O </c><c>   1</c></rc>
    <rc><c>O </c><c>   1</c></rc>
    <rc><c>O </c><c>   1</c></rc>
    <rc><c>O </c><c>   1</c></rc>
    <rc><c>O </c><c>   1</c></rc>
    <rc><c>N </c><c>   2</c></rc>
    <rc><c>N </c><c>   2</c></rc>
    <rc><c>N </c><c>   2</c></rc>
    <rc><c>N </c><c>   2</c></rc>
    <rc><c>N </c><c>   2</c></rc>
    <rc><c>N </c><c>   2</c></rc>
    <rc><c>N </c><c>   2</c></rc>
    <rc><c>N </c><c>   2</c></rc>
    <rc><c>N </c><c>   2</c></rc>
    <rc><c>N </c><c>   2</c></rc>
    <rc><c>N </c><c>   2</c></rc>
    <rc><c>N </c><c>   2</c></rc>
    <rc><c>H </c><c>   3</c></rc>
    <rc><c>H </c><c>   3</c></rc>
    <rc><c>H </c><c>   3</c></rc>
    <rc><c>H </c><c>   3</c></rc>
    <rc><c>H </c><c>   3</c></rc>
    <rc><c>H </c><c>   3</c></rc>
    <rc><c>H </c><c>   3</c></rc>
    <rc><c>H </c><c>   3</c></rc>
    <rc><c>H </c><c>   3</c></rc>
    <rc><c>H </c><c>   3</c></rc>
    <rc><c>H </c><c>   3</c></rc>
    <rc><c>H </c><c>   3</c></rc>
    <rc><c>H </c><c>   3</c></rc>
    <rc><c>H </c><c>   3</c></rc>
    <rc><c>H </c><c>   3</c></rc>
    <rc><c>H </c><c>   3</c></rc>
    <rc><c>H </c><c>   3</c></rc>
    <rc><c>H </c><c>   3</c></rc>
    <rc><c>C </c><c>   4</c></rc>
    <rc><c>C </c><c>   4</c></rc>
    <rc><c>C </c><c>   4</c></rc>
    <rc><c>C </c><c>   4</c></rc>
    <rc><c>C </c><c>   4</c></rc>
    <rc><c>C </c><c>   4</c></rc>
    <rc><c>C </c><c>   4</c></rc>
    <rc><c>C </c><c>   4</c></rc>
    <rc><c>C </c><c>   4</c></rc>
    <rc><c>C </c><c>   4</c></rc>
    <rc><c>C </c><c>   4</c></rc>
    <rc><c>C </c><c>   4</c></rc>
    <rc><c>C </c><c>   4</c></rc>
    <rc><c>C </c><c>   4</c></rc>
    <rc><c>C </c><c>   4</c></rc>
    <rc><c>C </c><c>   4</c></rc>
    <rc><c>C </c><c>   4</c></rc>
    <rc><c>C </c><c>   4</c></rc>
    <rc><c>C </c><c>   4</c></rc>
    <rc><c>C </c><c>   4</c></rc>
    <rc><c>C </c><c>   4</c></rc>
    <rc><c>C </c><c>   4</c></rc>
    <rc><c>C </c><c>   4</c></rc>
    <rc><c>C </c><c>   4</c></rc>
    <rc><c>C </c><c>   4</c></rc>
    <rc><c>C </c><c>   4</c></rc>
    <rc><c>C </c><c>   4</c></rc>
    <rc><c>C </c><c>   4</c></rc>
    <rc><c>C </c><c>   4</c></rc>
    <rc><c>C </c><c>   4</c></rc>
   </set>
  </array>
  <array name="atomtypes" >
   <dimension dim="1">type</dimension>
   <field type="int">atomspertype</field>
   <field type="string">element</field>
   <field>mass</field>
   <field>valence</field>
   <field type="string">pseudopotential</field>
   <set>
    <rc><c>   9</c><c>O </c><c>     16.00000000</c><c>      6.00000000</c><c>  PAW_PBE O 08Apr2002                   </c></rc>
    <rc><c>  12</c><c>N </c><c>     14.00100000</c><c>      5.00000000</c><c>  PAW_PBE N 08Apr2002                   </c></rc>
    <rc><c>  18</c><c>H </c><c>      1.00000000</c><c>      1.00000000</c><c>  PAW_PBE H 15Jun2001                   </c></rc>
    <rc><c>  30</c><c>C </c><c>     12.01100000</c><c>      4.00000000</c><c>  PAW_PBE C 08Apr2002                   </c></rc>
   </set>
  </array>
 </atominfo>
 <structure name="initialpos" >
  <crystal>
   <varray name="basis" >
    <v>      21.84813196       0.00729268       0.00000000 </v>
    <v>     -10.91754403      18.82112240       0.00000000 </v>
    <v>       0.00000000       0.00000000      20.00000000 </v>
   </varray>
   <i name="volume">   8225.71967748 </i>
   <varray name="rec_basis" >
    <v>       0.04576164       0.02654490       0.00000000 </v>
    <v>      -0.00001773       0.05312151       0.00000000 </v>
    <v>       0.00000000       0.00000000       0.05000000 </v>
   </varray>
  </crystal>
  <varray name="positions" >
   <v>       0.48733633       0.30593322       0.46947648 </v>
   <v>       0.68562318       0.17397316       0.47133183 </v>
   <v>       0.81858729       0.50595622       0.47055057 </v>
   <v>       0.50645195       0.68546422       0.53977906 </v>
   <v>       0.30491914       0.81399657       0.53930852 </v>
   <v>       0.17595812       0.48229840       0.53819613 </v>
   <v>       0.35265030       0.42623825       0.51492087 </v>
   <v>       0.07388142       0.63857013       0.51752590 </v>
   <v>       0.56311197       0.91780408       0.51711487 </v>
   <v>       0.71899640       0.31577351       0.46800729 </v>
   <v>       0.67683080       0.39750054       0.46594364 </v>
   <v>       0.59533611       0.27317001       0.46576402 </v>
   <v>       0.27318262       0.67247915       0.54219815 </v>
   <v>       0.31700050       0.59210792       0.54153783 </v>
   <v>       0.39714061       0.71666938       0.54262304 </v>
   <v>       0.42194963       0.56566817       0.53007356 </v>
   <v>       0.14167037       0.56759216       0.53198169 </v>
   <v>       0.42426202       0.84878964       0.53156478 </v>
   <v>       0.57284618       0.42566285       0.47714971 </v>
   <v>       0.85076864       0.41915860       0.47988176 </v>
   <v>       0.56644634       0.14057719       0.47751954 </v>
   <v>       0.43077135       0.36455275       0.48813636 </v>
   <v>       0.33167319       0.37532642       0.50796022 </v>
   <v>       0.36806404       0.53327991       0.53086087 </v>
   <v>       0.93381938       0.56169880       0.49100450 </v>
   <v>       0.04487398       0.66035720       0.51052932 </v>
   <v>       0.16384337       0.62174739       0.53324074 </v>
   <v>       0.62600273       0.05809238       0.48975810 </v>
   <v>       0.61388184       0.94727977       0.51020766 </v>
   <v>       0.45622301       0.82683191       0.53281347 </v>
   <v>       0.56517802       0.62746761       0.51950694 </v>
   <v>       0.62929525       0.56252687       0.49475177 </v>
   <v>       0.62681672       0.45663357       0.47589658 </v>
   <v>       0.05827179       0.42394396       0.52089463 </v>
   <v>       0.92916612       0.36098546       0.49658525 </v>
   <v>       0.82684833       0.36489001       0.47877932 </v>
   <v>       0.36398403       0.93172868       0.51956990 </v>
   <v>       0.42990231       0.06108660       0.49412891 </v>
   <v>       0.53602696       0.16416888       0.47572670 </v>
   <v>       0.72872873       0.38195002       0.46738990 </v>
   <v>       0.61089841       0.34090082       0.46593974 </v>
   <v>       0.80434189       0.44348174       0.47207003 </v>
   <v>       0.54936587       0.35472570       0.47021987 </v>
   <v>       0.63731261       0.18774863       0.47144765 </v>
   <v>       0.26447582       0.60673783       0.54173406 </v>
   <v>       0.38249511       0.64924951       0.54186373 </v>
   <v>       0.18922700       0.54441484       0.53781388 </v>
   <v>       0.44466999       0.63640193       0.53786342 </v>
   <v>       0.35359569       0.80086259       0.53831027 </v>
   <v>       0.46222223       0.53357129       0.51786869 </v>
   <v>       0.42479246       0.45890972       0.50905477 </v>
   <v>       0.45983932       0.42194767       0.49501505 </v>
   <v>       0.06925643       0.52783608       0.51996135 </v>
   <v>       0.03320336       0.56622739       0.51152296 </v>
   <v>       0.96123013       0.53188635       0.49765982 </v>
   <v>       0.45686921       0.92142034       0.51905135 </v>
   <v>       0.53127500       0.95806379       0.51061201 </v>
   <v>       0.56879972       0.03023862       0.49626545 </v>
   <v>       0.65154778       0.26354894       0.46706260 </v>
   <v>       0.34037579       0.72533396       0.54228932 </v>
   <v>       0.53400063       0.45943223       0.48980543 </v>
   <v>       0.57170798       0.53355190       0.49863037 </v>
   <v>       0.53635015       0.57020323       0.51255983 </v>
   <v>       0.92341974       0.45743938       0.49229653 </v>
   <v>       0.95867994       0.41878567       0.50070369 </v>
   <v>       0.03066339       0.45345458       0.51442077 </v>
   <v>       0.53212070       0.06769851       0.49031357 </v>
   <v>       0.45825244       0.03186607       0.49864972 </v>
   <v>       0.42105213       0.95969308       0.51295861 </v>
  </varray>
 </structure>
 <calculation>
  <scstep>
   <time name="dav">  106.13  107.01</time>
   <time name="total">  106.29  107.17</time>
   <energy>
    <i name="alphaZ">     34.52552643 </i>
    <i name="ewald">  28717.32808198 </i>
    <i name="hartreedc"> -38420.68116617 </i>
    <i name="XCdc">    963.37843896 </i>
    <i name="pawpsdc">  23909.54476496 </i>
    <i name="pawaedc"> -23965.57955807 </i>
    <i name="eentropy">     -0.00000000 </i>
    <i name="bandstr">  -3439.38773700 </i>
    <i name="atom">  11704.83449284 </i>
    <i name="e_fr_energy">   -496.03715608 </i>
    <i name="e_wo_entrp">   -496.03715608 </i>
    <i name="e_0_energy">   -496.03715608 </i>
   </energy>
  </scstep>
  <scstep>
   <time name="dav">  124.70  125.84</time>
   <time name="total">  124.71  125.86</time>
   <energy>
    <i name="e_fr_energy">   -496.73641822 </i>
    <i name="e_wo_entrp">   -496.73641822 </i>
    <i name="e_0_energy">   -496.73641822 </i>
   </energy>
  </scstep>
  <scstep>
   <time name="dav">  132.91  134.01</time>
   <time name="total">  132.92  134.01</time>
   <energy>
    <i name="e_fr_energy">   -496.75242234 </i>
    <i name="e_wo_entrp">   -496.75242234 </i>
    <i name="e_0_energy">   -496.75242234 </i>
   </energy>
  </scstep>
  <scstep>
   <time name="dav">  121.50  122.50</time>
   <time name="total">  121.51  122.51</time>
   <energy>
    <i name="e_fr_energy">   -496.75268435 </i>
    <i name="e_wo_entrp">   -496.75268435 </i>
    <i name="e_0_energy">   -496.75268435 </i>
   </energy>
  </scstep>
  <scstep>
   <time name="dav">  116.94  117.88</time>
   <time name="total">  116.95  117.89</time>
   <energy>
    <i name="e_fr_energy">   -496.75269524 </i>
    <i name="e_wo_entrp">   -496.75269524 </i>
    <i name="e_0_energy">   -496.75269524 </i>
   </energy>
  </scstep>
  <scstep>
   <time name="dav">   95.37   96.13</time>
   <time name="total">   95.38   96.14</time>
   <energy>
    <i name="alphaZ">     34.52552643 </i>
    <i name="ewald">  28717.32808198 </i>
    <i name="hartreedc"> -38420.68116617 </i>
    <i name="XCdc">    963.37843896 </i>
    <i name="pawpsdc">  23909.54476496 </i>
    <i name="pawaedc"> -23965.57955807 </i>
    <i name="eentropy">     -0.00000000 </i>
    <i name="bandstr">  -3440.10327664 </i>
    <i name="atom">  11704.83449284 </i>
    <i name="e_fr_energy">   -496.75269572 </i>
    <i name="e_wo_entrp">   -496.75269572 </i>
    <i name="e_0_energy">   -496.75269572 </i>
   </energy>
  </scstep>
  <structure>
   <crystal>
    <varray name="basis" >
     <v>      21.84813196       0.00729268       0.00000000 </v>
     <v>     -10.91754403      18.82112240       0.00000000 </v>
     <v>       0.00000000       0.00000000      20.00000000 </v>
    </varray>
    <i name="volume">   8225.71967748 </i>
    <varray name="rec_basis" >
     <v>       0.04576164       0.02654490       0.00000000 </v>
     <v>      -0.00001773       0.05312151       0.00000000 </v>
     <v>       0.00000000       0.00000000       0.05000000 </v>
    </varray>
   </crystal>
   <varray name="positions" >
    <v>       0.48733633       0.30593322       0.46947648 </v>
    <v>       0.68562318       0.17397316       0.47133183 </v>
    <v>       0.81858729       0.50595622       0.47055057 </v>
    <v>       0.50645195       0.68546422       0.53977906 </v>
    <v>       0.30491914       0.81399657       0.53930852 </v>
    <v>       0.17595812       0.48229840       0.53819613 </v>
    <v>       0.35265030       0.42623825       0.51492087 </v>
    <v>       0.07388142       0.63857013       0.51752590 </v>
    <v>       0.56311197       0.91780408       0.51711487 </v>
    <v>       0.71899640       0.31577351       0.46800729 </v>
    <v>       0.67683080       0.39750054       0.46594364 </v>
    <v>       0.59533611       0.27317001       0.46576402 </v>
    <v>       0.27318262       0.67247915       0.54219815 </v>
    <v>       0.31700050       0.59210792       0.54153783 </v>
    <v>       0.39714061       0.71666938       0.54262304 </v>
    <v>       0.42194963       0.56566817       0.53007356 </v>
    <v>       0.14167037       0.56759216       0.53198169 </v>
    <v>       0.42426202       0.84878964       0.53156478 </v>
    <v>       0.57284618       0.42566285       0.47714971 </v>
    <v>       0.85076864       0.41915860       0.47988176 </v>
    <v>       0.56644634       0.14057719       0.47751954 </v>
    <v>       0.43077135       0.36455275       0.48813636 </v>
    <v>       0.33167319       0.37532642       0.50796022 </v>
    <v>       0.36806404       0.53327991       0.53086087 </v>
    <v>       0.93381938       0.56169880       0.49100450 </v>
    <v>       0.04487398       0.66035720       0.51052932 </v>
    <v>       0.16384337       0.62174739       0.53324074 </v>
    <v>       0.62600273       0.05809238       0.48975810 </v>
    <v>       0.61388184       0.94727977       0.51020766 </v>
    <v>       0.45622301       0.82683191       0.53281347 </v>
    <v>       0.56517802       0.62746761       0.51950694 </v>
    <v>       0.62929525       0.56252687       0.49475177 </v>
    <v>       0.62681672       0.45663357       0.47589658 </v>
    <v>       0.05827179       0.42394396       0.52089463 </v>
    <v>       0.92916612       0.36098546       0.49658525 </v>
    <v>       0.82684833       0.36489001       0.47877932 </v>
    <v>       0.36398403       0.93172868       0.51956990 </v>
    <v>       0.42990231       0.06108660       0.49412891 </v>
    <v>       0.53602696       0.16416888       0.47572670 </v>
    <v>       0.72872873       0.38195002       0.46738990 </v>
    <v>       0.61089841       0.34090082       0.46593974 </v>
    <v>       0.80434189       0.44348174       0.47207003 </v>
    <v>       0.54936587       0.35472570       0.47021987 </v>
    <v>       0.63731261       0.18774863       0.47144765 </v>
    <v>       0.26447582       0.60673783       0.54173406 </v>
    <v>       0.38249511       0.64924951       0.54186373 </v>
    <v>       0.18922700       0.54441484       0.53781388 </v>
    <v>       0.44466999       0.63640193       0.53786342 </v>
    <v>       0.35359569       0.80086259       0.53831027 </v>
    <v>       0.46222223       0.53357129       0.51786869 </v>
    <v>       0.42479246       0.45890972       0.50905477 </v>
    <v>       0.45983932       0.42194767       0.49501505 </v>
    <v>       0.06925643       0.52783608       0.51996135 </v>
    <v>       0.03320336       0.56622739       0.51152296 </v>
    <v>       0.96123013       0.53188635       0.49765982 </v>
    <v>       0.45686921       0.92142034       0.51905135 </v>
    <v>       0.53127500       0.95806379       0.51061201 </v>
    <v>       0.56879972       0.03023862       0.49626545 </v>
    <v>       0.65154778       0.26354894       0.46706260 </v>
    <v>       0.34037579       0.72533396       0.54228932 </v>
    <v>       0.53400063       0.45943223       0.48980543 </v>
    <v>       0.57170798       0.53355190       0.49863037 </v>
    <v>       0.53635015       0.57020323       0.51255983 </v>
    <v>       0.92341974       0.45743938       0.49229653 </v>
    <v>       0.95867994       0.41878567       0.50070369 </v>
    <v>       0.03066339       0.45345458       0.51442077 </v>
    <v>       0.53212070       0.06769851       0.49031357 </v>
    <v>       0.45825244       0.03186607       0.49864972 </v>
    <v>       0.42105213       0.95969308       0.51295861 </v>
   </varray>
  </structure>
  <varray name="forces" >
   <v>       0.00233497       0.00395703       0.00513838 </v>
   <v>       0.00283887      -0.00137073       0.00085891 </v>
   <v>      -0.00097751      -0.00010605       0.00107337 </v>
   <v>      -0.00334546      -0.00188602      -0.00242991 </v>
   <v>       0.00127676       0.00311303       0.00079853 </v>
   <v>       0.00138018      -0.00599983      -0.00010822 </v>
   <v>       0.00449738       0.00069117      -0.00293904 </v>
   <v>      -0.00504662      -0.00113020      -0.00101991 </v>
   <v>      -0.00003747       0.00046415      -0.00599087 </v>
   <v>       0.00153289       0.00164841      -0.00084925 </v>
   <v>      -0.00438431      -0.00016887      -0.00245587 </v>
   <v>      -0.00265581       0.00478488      -0.00184213 </v>
   <v>       0.00316517       0.00565272      -0.00346637 </v>
   <v>      -0.00118308      -0.00185360       0.00078974 </v>
   <v>       0.00481290      -0.01098141      -0.00194490 </v>
   <v>       0.00448516      -0.00543327      -0.00442567 </v>
   <v>      -0.00927423      -0.00366576      -0.00205538 </v>
   <v>       0.00065698       0.00659359      -0.00061003 </v>
   <v>      -0.00273107       0.00288863       0.00702881 </v>
   <v>       0.01101369       0.00001116       0.00322258 </v>
   <v>      -0.00088548      -0.00275000       0.00773759 </v>
   <v>       0.00074350      -0.00172069      -0.00028623 </v>
   <v>      -0.00025492       0.00016390      -0.00255880 </v>
   <v>       0.00029595      -0.00119234      -0.00181068 </v>
   <v>       0.00157029      -0.00070497      -0.00055106 </v>
   <v>       0.00016222       0.00090922      -0.00157190 </v>
   <v>      -0.00197596       0.00381831      -0.00049942 </v>
   <v>       0.00022733       0.00038710      -0.00057423 </v>
   <v>      -0.00211136       0.00066915      -0.00230861 </v>
   <v>       0.00058046      -0.00096983      -0.00037283 </v>
   <v>      -0.00160329      -0.00224107       0.00095279 </v>
   <v>      -0.00041708       0.00105983       0.00137268 </v>
   <v>       0.00253126       0.00189977      -0.00043782 </v>
   <v>      -0.00091542      -0.00107917       0.00293023 </v>
   <v>      -0.00005708       0.00085382       0.00314875 </v>
   <v>       0.00092217       0.00028125       0.00291455 </v>
   <v>       0.00247498      -0.00012202      -0.00041724 </v>
   <v>       0.00048063       0.00049419       0.00335866 </v>
   <v>       0.00028533       0.00038324       0.00214507 </v>
   <v>       0.00711184       0.00104970      -0.00182842 </v>
   <v>       0.00432760      -0.00031509      -0.00021420 </v>
   <v>      -0.00890698      -0.00368011      -0.00057218 </v>
   <v>      -0.00120599      -0.00648042      -0.00227577 </v>
   <v>      -0.00016216       0.00513719       0.00078990 </v>
   <v>       0.00090739      -0.00176089      -0.00237937 </v>
   <v>      -0.00054412       0.00940594       0.00143374 </v>
   <v>       0.01006802      -0.00033555      -0.00254615 </v>
   <v>      -0.00213698       0.00410545      -0.00215856 </v>
   <v>      -0.00281989      -0.00958891       0.00086893 </v>
   <v>      -0.00374333       0.00299295       0.00138591 </v>
   <v>       0.00062681      -0.00347843       0.00064362 </v>
   <v>      -0.00217867      -0.00085265      -0.00201090 </v>
   <v>       0.00825554       0.00333135       0.00143286 </v>
   <v>      -0.00594319       0.00281561      -0.00105915 </v>
   <v>      -0.00244544       0.00770944       0.00074910 </v>
   <v>      -0.00013196      -0.00903559       0.00217733 </v>
   <v>       0.00726118       0.00198193      -0.00153553 </v>
   <v>       0.00057650       0.00049737      -0.00121198 </v>
   <v>       0.00074408      -0.00409041       0.00111964 </v>
   <v>      -0.00743686       0.00813159      -0.00312982 </v>
   <v>       0.00074787      -0.00503901      -0.00167226 </v>
   <v>      -0.00368927       0.00512174       0.00003654 </v>
   <v>       0.00729319       0.00113249       0.00135517 </v>
   <v>      -0.01095759      -0.00439443       0.00061789 </v>
   <v>       0.00424774      -0.00383100       0.00366761 </v>
   <v>      -0.00309672      -0.00784077       0.00171193 </v>
   <v>       0.00532923       0.00818641      -0.00070444 </v>
   <v>      -0.00607871      -0.00462436       0.00280391 </v>
   <v>      -0.00643205       0.00639973       0.00056041 </v>
  </varray>
  <varray name="stress" >
   <v>       0.01452421      -0.00469809       0.00140058 </v>
   <v>      -0.00469809       0.00112049      -0.00003082 </v>
   <v>       0.00140058      -0.00003081      -0.25136015 </v>
  </varray>
  <energy>
   <i name="e_fr_energy">   -498.09484055 </i>
   <i name="e_wo_entrp">   -498.09484055 </i>
   <i name="e_0_energy">     -0.00000000 </i>
  </energy>
  <time name="totalsc">  789.29  796.12</time>
  <eigenvalues>
   <array>
    <dimension dim="1">band</dimension>
    <dimension dim="2">kpoint</dimension>
    <dimension dim="3">spin</dimension>
    <field>eigene</field>
    <field>occ</field>
    <set>
     <set comment="spin 1">
      <set comment="kpoint 1">
       <r>  -26.8306    1.0000 </r>
       <r>  -26.8276    1.0000 </r>
       <r>  -26.8271    1.0000 </r>
       <r>  -26.6153    1.0000 </r>
       <r>  -26.4015    1.0000 </r>
       <r>  -26.1741    1.0000 </r>
       <r>  -26.1661    1.0000 </r>
       <r>  -25.9751    1.0000 </r>
       <r>  -25.9704    1.0000 </r>
       <r>  -25.7558    1.0000 </r>
       <r>  -25.5610    1.0000 </r>
       <r>  -23.9024    1.0000 </r>
       <r>  -23.8997    1.0000 </r>
       <r>  -23.7810    1.0000 </r>
       <r>  -23.6747    1.0000 </r>
       <r>  -23.6720    1.0000 </r>
       <r>  -23.5508    1.0000 </r>
       <r>  -23.0126    1.0000 </r>
       <r>  -23.0092    1.0000 </r>
       <r>  -22.8008    1.0000 </r>
       <r>  -22.7975    1.0000 </r>
       <r>  -21.0268    1.0000 </r>
       <r>  -21.0159    1.0000 </r>
       <r>  -21.0132    1.0000 </r>
       <r>  -19.1560    1.0000 </r>
       <r>  -19.1539    1.0000 </r>
       <r>  -18.9242    1.0000 </r>
       <r>  -18.4771    1.0000 </r>
       <r>  -18.4758    1.0000 </r>
       <r>  -18.4746    1.0000 </r>
       <r>  -18.2709    1.0000 </r>
       <r>  -18.2665    1.0000 </r>
       <r>  -17.4256    1.0000 </r>
       <r>  -17.4210    1.0000 </r>
       <r>  -17.2383    1.0000 </r>
       <r>  -16.2953    1.0000 </r>
       <r>  -16.2927    1.0000 </r>
       <r>  -15.9694    1.0000 </r>
       <r>  -15.6458    1.0000 </r>
       <r>  -15.5155    1.0000 </r>
       <r>  -15.5120    1.0000 </r>
       <r>  -14.7467    1.0000 </r>
       <r>  -14.7399    1.0000 </r>
       <r>  -14.6547    1.0000 </r>
       <r>  -14.4612    1.0000 </r>
       <r>  -14.3419    1.0000 </r>
       <r>  -14.0911    1.0000 </r>
       <r>  -14.0854    1.0000 </r>
       <r>  -14.0331    1.0000 </r>
       <r>  -13.7908    1.0000 </r>
       <r>  -13.7877    1.0000 </r>
       <r>  -13.7133    1.0000 </r>
       <r>  -13.3216    1.0000 </r>
       <r>  -13.3146    1.0000 </r>
       <r>  -13.1924    1.0000 </r>
       <r>  -12.5626    1.0000 </r>
       <r>  -12.3901    1.0000 </r>
       <r>  -12.3859    1.0000 </r>
       <r>  -12.2007    1.0000 </r>
       <r>  -11.9972    1.0000 </r>
       <r>  -11.9830    1.0000 </r>
       <r>  -11.8516    1.0000 </r>
       <r>  -11.8467    1.0000 </r>
       <r>  -11.7498    1.0000 </r>
       <r>  -11.7474    1.0000 </r>
       <r>  -11.2281    1.0000 </r>
       <r>  -11.0546    1.0000 </r>
       <r>  -11.0485    1.0000 </r>
       <r>  -10.9780    1.0000 </r>
       <r>  -10.9755    1.0000 </r>
       <r>  -10.8318    1.0000 </r>
       <r>  -10.8278    1.0000 </r>
       <r>  -10.6762    1.0000 </r>
       <r>  -10.4904    1.0000 </r>
       <r>  -10.4345    1.0000 </r>
       <r>  -10.4328    1.0000 </r>
       <r>  -10.2595    1.0000 </r>
       <r>  -10.2060    1.0000 </r>
       <r>  -10.1689    1.0000 </r>
       <r>  -10.1652    1.0000 </r>
       <r>  -10.1468    1.0000 </r>
       <r>  -10.0348    1.0000 </r>
       <r>  -10.0328    1.0000 </r>
       <r>  -10.0128    1.0000 </r>
       <r>  -10.0106    1.0000 </r>
       <r>   -9.7961    1.0000 </r>
       <r>   -9.7410    1.0000 </r>
       <r>   -9.7387    1.0000 </r>
       <r>   -9.6116    1.0000 </r>
       <r>   -9.5446    1.0000 </r>
       <r>   -9.3811    1.0000 </r>
       <r>   -8.9653    1.0000 </r>
       <r>   -8.9631    1.0000 </r>
       <r>   -8.9136    1.0000 </r>
       <r>   -8.9111    1.0000 </r>
       <r>   -8.9065    1.0000 </r>
       <r>   -8.7349    1.0000 </r>
       <r>   -8.7315    1.0000 </r>
       <r>   -8.7139    1.0000 </r>
       <r>   -8.5706    1.0000 </r>
       <r>   -8.5072    1.0000 </r>
       <r>   -8.5058    1.0000 </r>
       <r>   -8.2457    1.0000 </r>
       <r>   -8.2431    1.0000 </r>
       <r>   -7.8774    1.0000 </r>
       <r>   -7.7743    1.0000 </r>
       <r>   -7.7720    1.0000 </r>
       <r>   -7.0253    1.0000 </r>
       <r>   -7.0207    1.0000 </r>
       <r>   -6.8031    1.0000 </r>
       <r>   -6.8023    1.0000 </r>
       <r>   -6.7887    1.0000 </r>
       <r>   -6.7625    1.0000 </r>
       <r>   -6.7594    1.0000 </r>
       <r>   -6.2364    1.0000 </r>
       <r>   -5.9954    1.0000 </r>
       <r>   -5.9553    1.0000 </r>
       <r>   -5.9521    1.0000 </r>
       <r>   -5.8892    1.0000 </r>
       <r>   -5.8876    1.0000 </r>
       <r>   -5.8852    1.0000 </r>
       <r>   -5.7087    1.0000 </r>
       <r>   -5.7069    1.0000 </r>
       <r>   -5.0009    1.0000 </r>
       <r>   -4.9963    1.0000 </r>
       <r>   -4.9436    1.0000 </r>
       <r>   -3.5574    0.0000 </r>
       <r>   -3.5559    0.0000 </r>
       <r>   -3.2082    0.0000 </r>
       <r>   -3.2066    0.0000 </r>
       <r>   -2.0573    0.0000 </r>
       <r>   -1.3365    0.0000 </r>
       <r>   -1.0919    0.0000 </r>
       <r>   -1.0892    0.0000 </r>
       <r>   -0.9909    0.0000 </r>
       <r>   -0.8151    0.0000 </r>
       <r>   -0.8122    0.0000 </r>
       <r>   -0.5067    0.0000 </r>
       <r>   -0.3470    0.0000 </r>
       <r>   -0.3449    0.0000 </r>
       <r>   -0.2540    0.0000 </r>
       <r>   -0.1180    0.0000 </r>
       <r>    0.1012    0.0000 </r>
       <r>    0.1287    0.0000 </r>
       <r>    0.1339    0.0000 </r>
       <r>    0.4321    0.0000 </r>
       <r>    0.5116    0.0000 </r>
       <r>    0.5201    0.0000 </r>
       <r>    0.5261    0.0000 </r>
       <r>    0.6157    0.0000 </r>
       <r>    0.6809    0.0000 </r>
       <r>    0.6824    0.0000 </r>
       <r>    0.6892    0.0000 </r>
       <r>    0.7196    0.0000 </r>
       <r>    0.7227    0.0000 </r>
       <r>    0.9126    0.0000 </r>
       <r>    0.9134    0.0000 </r>
       <r>    0.9274    0.0000 </r>
       <r>    0.9911    0.0000 </r>
       <r>    0.9936    0.0000 </r>
       <r>    1.0191    0.0000 </r>
       <r>    1.0509    0.0000 </r>
       <r>    1.0551    0.0000 </r>
       <r>    1.0753    0.0000 </r>
       <r>    1.0761    0.0000 </r>
       <r>    1.0899    0.0000 </r>
       <r>    1.0946    0.0000 </r>
       <r>    1.0969    0.0000 </r>
       <r>    1.1099    0.0000 </r>
       <r>    1.1358    0.0000 </r>
       <r>    1.1389    0.0000 </r>
       <r>    1.1734    0.0000 </r>
       <r>    1.3435    0.0000 </r>
       <r>    1.5466    0.0000 </r>
       <r>    1.5600    0.0000 </r>
       <r>    1.5645    0.0000 </r>
      </set>
      <set comment="kpoint 2">
       <r>  -26.8306    1.0000 </r>
       <r>  -26.8276    1.0000 </r>
       <r>  -26.8271    1.0000 </r>
       <r>  -26.6153    1.0000 </r>
       <r>  -26.4015    1.0000 </r>
       <r>  -26.1741    1.0000 </r>
       <r>  -26.1661    1.0000 </r>
       <r>  -25.9751    1.0000 </r>
       <r>  -25.9704    1.0000 </r>
       <r>  -25.7558    1.0000 </r>
       <r>  -25.5610    1.0000 </r>
       <r>  -23.9024    1.0000 </r>
       <r>  -23.8997    1.0000 </r>
       <r>  -23.7810    1.0000 </r>
       <r>  -23.6747    1.0000 </r>
       <r>  -23.6720    1.0000 </r>
       <r>  -23.5508    1.0000 </r>
       <r>  -23.0126    1.0000 </r>
       <r>  -23.0092    1.0000 </r>
       <r>  -22.8008    1.0000 </r>
       <r>  -22.7975    1.0000 </r>
       <r>  -21.0268    1.0000 </r>
       <r>  -21.0159    1.0000 </r>
       <r>  -21.0133    1.0000 </r>
       <r>  -19.1560    1.0000 </r>
       <r>  -19.1537    1.0000 </r>
       <r>  -18.9248    1.0000 </r>
       <r>  -18.4771    1.0000 </r>
       <r>  -18.4758    1.0000 </r>
       <r>  -18.4746    1.0000 </r>
       <r>  -18.2705    1.0000 </r>
       <r>  -18.2659    1.0000 </r>
       <r>  -17.4269    1.0000 </r>
       <r>  -17.4253    1.0000 </r>
       <r>  -17.2325    1.0000 </r>
       <r>  -16.2953    1.0000 </r>
       <r>  -16.2936    1.0000 </r>
       <r>  -15.9694    1.0000 </r>
       <r>  -15.6497    1.0000 </r>
       <r>  -15.5153    1.0000 </r>
       <r>  -15.5076    1.0000 </r>
       <r>  -14.7470    1.0000 </r>
       <r>  -14.7414    1.0000 </r>
       <r>  -14.6532    1.0000 </r>
       <r>  -14.4612    1.0000 </r>
       <r>  -14.3422    1.0000 </r>
       <r>  -14.0914    1.0000 </r>
       <r>  -14.0870    1.0000 </r>
       <r>  -14.0314    1.0000 </r>
       <r>  -13.7908    1.0000 </r>
       <r>  -13.7883    1.0000 </r>
       <r>  -13.7126    1.0000 </r>
       <r>  -13.3219    1.0000 </r>
       <r>  -13.3165    1.0000 </r>
       <r>  -13.1902    1.0000 </r>
       <r>  -12.5626    1.0000 </r>
       <r>  -12.3900    1.0000 </r>
       <r>  -12.3858    1.0000 </r>
       <r>  -12.2007    1.0000 </r>
       <r>  -11.9973    1.0000 </r>
       <r>  -11.9833    1.0000 </r>
       <r>  -11.8519    1.0000 </r>
       <r>  -11.8470    1.0000 </r>
       <r>  -11.7497    1.0000 </r>
       <r>  -11.7471    1.0000 </r>
       <r>  -11.2276    1.0000 </r>
       <r>  -11.0546    1.0000 </r>
       <r>  -11.0484    1.0000 </r>
       <r>  -10.9781    1.0000 </r>
       <r>  -10.9757    1.0000 </r>
       <r>  -10.8321    1.0000 </r>
       <r>  -10.8284    1.0000 </r>
       <r>  -10.6752    1.0000 </r>
       <r>  -10.4903    1.0000 </r>
       <r>  -10.4345    1.0000 </r>
       <r>  -10.4328    1.0000 </r>
       <r>  -10.2596    1.0000 </r>
       <r>  -10.2068    1.0000 </r>
       <r>  -10.1691    1.0000 </r>
       <r>  -10.1657    1.0000 </r>
       <r>  -10.1468    1.0000 </r>
       <r>  -10.0347    1.0000 </r>
       <r>  -10.0321    1.0000 </r>
       <r>  -10.0128    1.0000 </r>
       <r>  -10.0100    1.0000 </r>
       <r>   -9.7960    1.0000 </r>
       <r>   -9.7410    1.0000 </r>
       <r>   -9.7387    1.0000 </r>
       <r>   -9.6115    1.0000 </r>
       <r>   -9.5449    1.0000 </r>
       <r>   -9.3811    1.0000 </r>
       <r>   -8.9653    1.0000 </r>
       <r>   -8.9631    1.0000 </r>
       <r>   -8.9137    1.0000 </r>
       <r>   -8.9112    1.0000 </r>
       <r>   -8.9063    1.0000 </r>
       <r>   -8.7349    1.0000 </r>
       <r>   -8.7315    1.0000 </r>
       <r>   -8.7139    1.0000 </r>
       <r>   -8.5709    1.0000 </r>
       <r>   -8.5072    1.0000 </r>
       <r>   -8.5053    1.0000 </r>
       <r>   -8.2458    1.0000 </r>
       <r>   -8.2433    1.0000 </r>
       <r>   -7.8773    1.0000 </r>
       <r>   -7.7743    1.0000 </r>
       <r>   -7.7721    1.0000 </r>
       <r>   -7.0253    1.0000 </r>
       <r>   -7.0207    1.0000 </r>
       <r>   -6.8031    1.0000 </r>
       <r>   -6.8023    1.0000 </r>
       <r>   -6.7887    1.0000 </r>
       <r>   -6.7625    1.0000 </r>
       <r>   -6.7594    1.0000 </r>
       <r>   -6.2364    1.0000 </r>
       <r>   -5.9960    1.0000 </r>
       <r>   -5.9551    1.0000 </r>
       <r>   -5.9517    1.0000 </r>
       <r>   -5.8892    1.0000 </r>
       <r>   -5.8876    1.0000 </r>
       <r>   -5.8852    1.0000 </r>
       <r>   -5.7087    1.0000 </r>
       <r>   -5.7069    1.0000 </r>
       <r>   -5.0009    1.0000 </r>
       <r>   -4.9963    1.0000 </r>
       <r>   -4.9437    1.0000 </r>
       <r>   -3.5574    0.0000 </r>
       <r>   -3.5556    0.0000 </r>
       <r>   -3.2082    0.0000 </r>
       <r>   -3.2071    0.0000 </r>
       <r>   -2.0565    0.0000 </r>
       <r>   -1.3390    0.0000 </r>
       <r>   -1.0919    0.0000 </r>
       <r>   -1.0878    0.0000 </r>
       <r>   -0.9909    0.0000 </r>
       <r>   -0.8150    0.0000 </r>
       <r>   -0.8111    0.0000 </r>
       <r>   -0.5065    0.0000 </r>
       <r>   -0.3471    0.0000 </r>
       <r>   -0.3453    0.0000 </r>
       <r>   -0.2538    0.0000 </r>
       <r>   -0.1191    0.0000 </r>
       <r>    0.1004    0.0000 </r>
       <r>    0.1296    0.0000 </r>
       <r>    0.1344    0.0000 </r>
       <r>    0.4313    0.0000 </r>
       <r>    0.5114    0.0000 </r>
       <r>    0.5201    0.0000 </r>
       <r>    0.5279    0.0000 </r>
       <r>    0.6157    0.0000 </r>
       <r>    0.6770    0.0000 </r>
       <r>    0.6807    0.0000 </r>
       <r>    0.6920    0.0000 </r>
       <r>    0.7194    0.0000 </r>
       <r>    0.7253    0.0000 </r>
       <r>    0.9048    0.0000 </r>
       <r>    0.9119    0.0000 </r>
       <r>    0.9341    0.0000 </r>
       <r>    0.9892    0.0000 </r>
       <r>    0.9934    0.0000 </r>
       <r>    1.0198    0.0000 </r>
       <r>    1.0500    0.0000 </r>
       <r>    1.0542    0.0000 </r>
       <r>    1.0730    0.0000 </r>
       <r>    1.0752    0.0000 </r>
       <r>    1.0864    0.0000 </r>
       <r>    1.0989    0.0000 </r>
       <r>    1.1016    0.0000 </r>
       <r>    1.1120    0.0000 </r>
       <r>    1.1370    0.0000 </r>
       <r>    1.1405    0.0000 </r>
       <r>    1.1756    0.0000 </r>
       <r>    1.3439    0.0000 </r>
       <r>    1.5436    0.0000 </r>
       <r>    1.5601    0.0000 </r>
       <r>    1.5650    0.0000 </r>
      </set>
      <set comment="kpoint 3">
       <r>  -26.8306    1.0000 </r>
       <r>  -26.8276    1.0000 </r>
       <r>  -26.8271    1.0000 </r>
       <r>  -26.6153    1.0000 </r>
       <r>  -26.4015    1.0000 </r>
       <r>  -26.1741    1.0000 </r>
       <r>  -26.1661    1.0000 </r>
       <r>  -25.9751    1.0000 </r>
       <r>  -25.9704    1.0000 </r>
       <r>  -25.7558    1.0000 </r>
       <r>  -25.5610    1.0000 </r>
       <r>  -23.9024    1.0000 </r>
       <r>  -23.8997    1.0000 </r>
       <r>  -23.7811    1.0000 </r>
       <r>  -23.6746    1.0000 </r>
       <r>  -23.6719    1.0000 </r>
       <r>  -23.5509    1.0000 </r>
       <r>  -23.0126    1.0000 </r>
       <r>  -23.0091    1.0000 </r>
       <r>  -22.8008    1.0000 </r>
       <r>  -22.7975    1.0000 </r>
       <r>  -21.0268    1.0000 </r>
       <r>  -21.0159    1.0000 </r>
       <r>  -21.0133    1.0000 </r>
       <r>  -19.1557    1.0000 </r>
       <r>  -19.1532    1.0000 </r>
       <r>  -18.9264    1.0000 </r>
       <r>  -18.4771    1.0000 </r>
       <r>  -18.4758    1.0000 </r>
       <r>  -18.4746    1.0000 </r>
       <r>  -18.2699    1.0000 </r>
       <r>  -18.2637    1.0000 </r>
       <r>  -17.4417    1.0000 </r>
       <r>  -17.4255    1.0000 </r>
       <r>  -17.2170    1.0000 </r>
       <r>  -16.2968    1.0000 </r>
       <r>  -16.2950    1.0000 </r>
       <r>  -15.9694    1.0000 </r>
       <r>  -15.6602    1.0000 </r>
       <r>  -15.5152    1.0000 </r>
       <r>  -15.4949    1.0000 </r>
       <r>  -14.7490    1.0000 </r>
       <r>  -14.7443    1.0000 </r>
       <r>  -14.6492    1.0000 </r>
       <r>  -14.4610    1.0000 </r>
       <r>  -14.3429    1.0000 </r>
       <r>  -14.0936    1.0000 </r>
       <r>  -14.0896    1.0000 </r>
       <r>  -14.0269    1.0000 </r>
       <r>  -13.7910    1.0000 </r>
       <r>  -13.7897    1.0000 </r>
       <r>  -13.7107    1.0000 </r>
       <r>  -13.3249    1.0000 </r>
       <r>  -13.3196    1.0000 </r>
       <r>  -13.1839    1.0000 </r>
       <r>  -12.5629    1.0000 </r>
       <r>  -12.3899    1.0000 </r>
       <r>  -12.3856    1.0000 </r>
       <r>  -12.2007    1.0000 </r>
       <r>  -11.9973    1.0000 </r>
       <r>  -11.9840    1.0000 </r>
       <r>  -11.8529    1.0000 </r>
       <r>  -11.8479    1.0000 </r>
       <r>  -11.7498    1.0000 </r>
       <r>  -11.7459    1.0000 </r>
       <r>  -11.2260    1.0000 </r>
       <r>  -11.0545    1.0000 </r>
       <r>  -11.0481    1.0000 </r>
       <r>  -10.9781    1.0000 </r>
       <r>  -10.9764    1.0000 </r>
       <r>  -10.8333    1.0000 </r>
       <r>  -10.8296    1.0000 </r>
       <r>  -10.6721    1.0000 </r>
       <r>  -10.4902    1.0000 </r>
       <r>  -10.4346    1.0000 </r>
       <r>  -10.4330    1.0000 </r>
       <r>  -10.2597    1.0000 </r>
       <r>  -10.2092    1.0000 </r>
       <r>  -10.1702    1.0000 </r>
       <r>  -10.1667    1.0000 </r>
       <r>  -10.1464    1.0000 </r>
       <r>  -10.0347    1.0000 </r>
       <r>  -10.0303    1.0000 </r>
       <r>  -10.0128    1.0000 </r>
       <r>  -10.0079    1.0000 </r>
       <r>   -9.7958    1.0000 </r>
       <r>   -9.7410    1.0000 </r>
       <r>   -9.7390    1.0000 </r>
       <r>   -9.6114    1.0000 </r>
       <r>   -9.5456    1.0000 </r>
       <r>   -9.3812    1.0000 </r>
       <r>   -8.9653    1.0000 </r>
       <r>   -8.9631    1.0000 </r>
       <r>   -8.9139    1.0000 </r>
       <r>   -8.9116    1.0000 </r>
       <r>   -8.9057    1.0000 </r>
       <r>   -8.7349    1.0000 </r>
       <r>   -8.7314    1.0000 </r>
       <r>   -8.7140    1.0000 </r>
       <r>   -8.5720    1.0000 </r>
       <r>   -8.5072    1.0000 </r>
       <r>   -8.5036    1.0000 </r>
       <r>   -8.2461    1.0000 </r>
       <r>   -8.2436    1.0000 </r>
       <r>   -7.8769    1.0000 </r>
       <r>   -7.7743    1.0000 </r>
       <r>   -7.7722    1.0000 </r>
       <r>   -7.0253    1.0000 </r>
       <r>   -7.0207    1.0000 </r>
       <r>   -6.8031    1.0000 </r>
       <r>   -6.8024    1.0000 </r>
       <r>   -6.7886    1.0000 </r>
       <r>   -6.7625    1.0000 </r>
       <r>   -6.7594    1.0000 </r>
       <r>   -6.2363    1.0000 </r>
       <r>   -5.9976    1.0000 </r>
       <r>   -5.9549    1.0000 </r>
       <r>   -5.9503    1.0000 </r>
       <r>   -5.8892    1.0000 </r>
       <r>   -5.8876    1.0000 </r>
       <r>   -5.8852    1.0000 </r>
       <r>   -5.7087    1.0000 </r>
       <r>   -5.7071    1.0000 </r>
       <r>   -5.0009    1.0000 </r>
       <r>   -4.9960    1.0000 </r>
       <r>   -4.9440    1.0000 </r>
       <r>   -3.5574    0.0000 </r>
       <r>   -3.5548    0.0000 </r>
       <r>   -3.2086    0.0000 </r>
       <r>   -3.2081    0.0000 </r>
       <r>   -2.0540    0.0000 </r>
       <r>   -1.3465    0.0000 </r>
       <r>   -1.0919    0.0000 </r>
       <r>   -1.0837    0.0000 </r>
       <r>   -0.9909    0.0000 </r>
       <r>   -0.8149    0.0000 </r>
       <r>   -0.8077    0.0000 </r>
       <r>   -0.5060    0.0000 </r>
       <r>   -0.3475    0.0000 </r>
       <r>   -0.3466    0.0000 </r>
       <r>   -0.2530    0.0000 </r>
       <r>   -0.1225    0.0000 </r>
       <r>    0.0982    0.0000 </r>
       <r>    0.1317    0.0000 </r>
       <r>    0.1364    0.0000 </r>
       <r>    0.4292    0.0000 </r>
       <r>    0.5111    0.0000 </r>
       <r>    0.5201    0.0000 </r>
       <r>    0.5330    0.0000 </r>
       <r>    0.6154    0.0000 </r>
       <r>    0.6682    0.0000 </r>
       <r>    0.6799    0.0000 </r>
       <r>    0.6944    0.0000 </r>
       <r>    0.7188    0.0000 </r>
       <r>    0.7322    0.0000 </r>
       <r>    0.8907    0.0000 </r>
       <r>    0.9098    0.0000 </r>
       <r>    0.9428    0.0000 </r>
       <r>    0.9842    0.0000 </r>
       <r>    0.9933    0.0000 </r>
       <r>    1.0203    0.0000 </r>
       <r>    1.0477    0.0000 </r>
       <r>    1.0520    0.0000 </r>
       <r>    1.0686    0.0000 </r>
       <r>    1.0735    0.0000 </r>
       <r>    1.0855    0.0000 </r>
       <r>    1.1043    0.0000 </r>
       <r>    1.1090    0.0000 </r>
       <r>    1.1186    0.0000 </r>
       <r>    1.1415    0.0000 </r>
       <r>    1.1454    0.0000 </r>
       <r>    1.1819    0.0000 </r>
       <r>    1.3449    0.0000 </r>
       <r>    1.5345    0.0000 </r>
       <r>    1.5585    0.0000 </r>
       <r>    1.5657    0.0000 </r>
      </set>
      <set comment="kpoint 4">
       <r>  -26.8306    1.0000 </r>
       <r>  -26.8276    1.0000 </r>
       <r>  -26.8271    1.0000 </r>
       <r>  -26.6153    1.0000 </r>
       <r>  -26.4015    1.0000 </r>
       <r>  -26.1741    1.0000 </r>
       <r>  -26.1661    1.0000 </r>
       <r>  -25.9751    1.0000 </r>
       <r>  -25.9704    1.0000 </r>
       <r>  -25.7558    1.0000 </r>
       <r>  -25.5610    1.0000 </r>
       <r>  -23.9024    1.0000 </r>
       <r>  -23.8997    1.0000 </r>
       <r>  -23.7812    1.0000 </r>
       <r>  -23.6745    1.0000 </r>
       <r>  -23.6718    1.0000 </r>
       <r>  -23.5511    1.0000 </r>
       <r>  -23.0126    1.0000 </r>
       <r>  -23.0091    1.0000 </r>
       <r>  -22.8008    1.0000 </r>
       <r>  -22.7976    1.0000 </r>
       <r>  -21.0267    1.0000 </r>
       <r>  -21.0159    1.0000 </r>
       <r>  -21.0134    1.0000 </r>
       <r>  -19.1555    1.0000 </r>
       <r>  -19.1522    1.0000 </r>
       <r>  -18.9291    1.0000 </r>
       <r>  -18.4771    1.0000 </r>
       <r>  -18.4758    1.0000 </r>
       <r>  -18.4746    1.0000 </r>
       <r>  -18.2695    1.0000 </r>
       <r>  -18.2593    1.0000 </r>
       <r>  -17.4629    1.0000 </r>
       <r>  -17.4255    1.0000 </r>
       <r>  -17.1951    1.0000 </r>
       <r>  -16.3016    1.0000 </r>
       <r>  -16.2951    1.0000 </r>
       <r>  -15.9693    1.0000 </r>
       <r>  -15.6743    1.0000 </r>
       <r>  -15.5152    1.0000 </r>
       <r>  -15.4769    1.0000 </r>
       <r>  -14.7554    1.0000 </r>
       <r>  -14.7452    1.0000 </r>
       <r>  -14.6433    1.0000 </r>
       <r>  -14.4608    1.0000 </r>
       <r>  -14.3440    1.0000 </r>
       <r>  -14.0995    1.0000 </r>
       <r>  -14.0905    1.0000 </r>
       <r>  -14.0206    1.0000 </r>
       <r>  -13.7927    1.0000 </r>
       <r>  -13.7905    1.0000 </r>
       <r>  -13.7077    1.0000 </r>
       <r>  -13.3333    1.0000 </r>
       <r>  -13.3202    1.0000 </r>
       <r>  -13.1745    1.0000 </r>
       <r>  -12.5632    1.0000 </r>
       <r>  -12.3897    1.0000 </r>
       <r>  -12.3854    1.0000 </r>
       <r>  -12.2007    1.0000 </r>
       <r>  -11.9974    1.0000 </r>
       <r>  -11.9852    1.0000 </r>
       <r>  -11.8544    1.0000 </r>
       <r>  -11.8493    1.0000 </r>
       <r>  -11.7502    1.0000 </r>
       <r>  -11.7436    1.0000 </r>
       <r>  -11.2234    1.0000 </r>
       <r>  -11.0545    1.0000 </r>
       <r>  -11.0475    1.0000 </r>
       <r>  -10.9783    1.0000 </r>
       <r>  -10.9775    1.0000 </r>
       <r>  -10.8366    1.0000 </r>
       <r>  -10.8303    1.0000 </r>
       <r>  -10.6673    1.0000 </r>
       <r>  -10.4899    1.0000 </r>
       <r>  -10.4349    1.0000 </r>
       <r>  -10.4333    1.0000 </r>
       <r>  -10.2598    1.0000 </r>
       <r>  -10.2131    1.0000 </r>
       <r>  -10.1732    1.0000 </r>
       <r>  -10.1669    1.0000 </r>
       <r>  -10.1455    1.0000 </r>
       <r>  -10.0347    1.0000 </r>
       <r>  -10.0282    1.0000 </r>
       <r>  -10.0129    1.0000 </r>
       <r>  -10.0040    1.0000 </r>
       <r>   -9.7955    1.0000 </r>
       <r>   -9.7410    1.0000 </r>
       <r>   -9.7394    1.0000 </r>
       <r>   -9.6112    1.0000 </r>
       <r>   -9.5469    1.0000 </r>
       <r>   -9.3813    1.0000 </r>
       <r>   -8.9653    1.0000 </r>
       <r>   -8.9630    1.0000 </r>
       <r>   -8.9142    1.0000 </r>
       <r>   -8.9120    1.0000 </r>
       <r>   -8.9050    1.0000 </r>
       <r>   -8.7349    1.0000 </r>
       <r>   -8.7312    1.0000 </r>
       <r>   -8.7141    1.0000 </r>
       <r>   -8.5736    1.0000 </r>
       <r>   -8.5072    1.0000 </r>
       <r>   -8.5010    1.0000 </r>
       <r>   -8.2469    1.0000 </r>
       <r>   -8.2441    1.0000 </r>
       <r>   -7.8764    1.0000 </r>
       <r>   -7.7743    1.0000 </r>
       <r>   -7.7724    1.0000 </r>
       <r>   -7.0254    1.0000 </r>
       <r>   -7.0207    1.0000 </r>
       <r>   -6.8032    1.0000 </r>
       <r>   -6.8025    1.0000 </r>
       <r>   -6.7885    1.0000 </r>
       <r>   -6.7625    1.0000 </r>
       <r>   -6.7594    1.0000 </r>
       <r>   -6.2360    1.0000 </r>
       <r>   -6.0001    1.0000 </r>
       <r>   -5.9547    1.0000 </r>
       <r>   -5.9480    1.0000 </r>
       <r>   -5.8892    1.0000 </r>
       <r>   -5.8876    1.0000 </r>
       <r>   -5.8851    1.0000 </r>
       <r>   -5.7087    1.0000 </r>
       <r>   -5.7073    1.0000 </r>
       <r>   -5.0009    1.0000 </r>
       <r>   -4.9957    1.0000 </r>
       <r>   -4.9444    1.0000 </r>
       <r>   -3.5574    0.0000 </r>
       <r>   -3.5534    0.0000 </r>
       <r>   -3.2107    0.0000 </r>
       <r>   -3.2082    0.0000 </r>
       <r>   -2.0499    0.0000 </r>
       <r>   -1.3581    0.0000 </r>
       <r>   -1.0918    0.0000 </r>
       <r>   -1.0775    0.0000 </r>
       <r>   -0.9910    0.0000 </r>
       <r>   -0.8149    0.0000 </r>
       <r>   -0.8019    0.0000 </r>
       <r>   -0.5052    0.0000 </r>
       <r>   -0.3494    0.0000 </r>
       <r>   -0.3474    0.0000 </r>
       <r>   -0.2518    0.0000 </r>
       <r>   -0.1281    0.0000 </r>
       <r>    0.0953    0.0000 </r>
       <r>    0.1342    0.0000 </r>
       <r>    0.1400    0.0000 </r>
       <r>    0.4262    0.0000 </r>
       <r>    0.5105    0.0000 </r>
       <r>    0.5201    0.0000 </r>
       <r>    0.5409    0.0000 </r>
       <r>    0.6148    0.0000 </r>
       <r>    0.6589    0.0000 </r>
       <r>    0.6787    0.0000 </r>
       <r>    0.6952    0.0000 </r>
       <r>    0.7179    0.0000 </r>
       <r>    0.7414    0.0000 </r>
       <r>    0.8755    0.0000 </r>
       <r>    0.9065    0.0000 </r>
       <r>    0.9492    0.0000 </r>
       <r>    0.9777    0.0000 </r>
       <r>    0.9929    0.0000 </r>
       <r>    1.0185    0.0000 </r>
       <r>    1.0435    0.0000 </r>
       <r>    1.0506    0.0000 </r>
       <r>    1.0658    0.0000 </r>
       <r>    1.0716    0.0000 </r>
       <r>    1.0865    0.0000 </r>
       <r>    1.1120    0.0000 </r>
       <r>    1.1142    0.0000 </r>
       <r>    1.1288    0.0000 </r>
       <r>    1.1496    0.0000 </r>
       <r>    1.1540    0.0000 </r>
       <r>    1.1912    0.0000 </r>
       <r>    1.3466    0.0000 </r>
       <r>    1.5210    0.0000 </r>
       <r>    1.5542    0.0000 </r>
       <r>    1.5644    0.0000 </r>
      </set>
      <set comment="kpoint 5">
       <r>  -26.8306    1.0000 </r>
       <r>  -26.8276    1.0000 </r>
       <r>  -26.8271    1.0000 </r>
       <r>  -26.6153    1.0000 </r>
       <r>  -26.4015    1.0000 </r>
       <r>  -26.1741    1.0000 </r>
       <r>  -26.1661    1.0000 </r>
       <r>  -25.9751    1.0000 </r>
       <r>  -25.9704    1.0000 </r>
       <r>  -25.7558    1.0000 </r>
       <r>  -25.5610    1.0000 </r>
       <r>  -23.9024    1.0000 </r>
       <r>  -23.8997    1.0000 </r>
       <r>  -23.7814    1.0000 </r>
       <r>  -23.6744    1.0000 </r>
       <r>  -23.6716    1.0000 </r>
       <r>  -23.5513    1.0000 </r>
       <r>  -23.0126    1.0000 </r>
       <r>  -23.0090    1.0000 </r>
       <r>  -22.8008    1.0000 </r>
       <r>  -22.7976    1.0000 </r>
       <r>  -21.0266    1.0000 </r>
       <r>  -21.0159    1.0000 </r>
       <r>  -21.0135    1.0000 </r>
       <r>  -19.1554    1.0000 </r>
       <r>  -19.1507    1.0000 </r>
       <r>  -18.9327    1.0000 </r>
       <r>  -18.4772    1.0000 </r>
       <r>  -18.4758    1.0000 </r>
       <r>  -18.4746    1.0000 </r>
       <r>  -18.2692    1.0000 </r>
       <r>  -18.2530    1.0000 </r>
       <r>  -17.4875    1.0000 </r>
       <r>  -17.4255    1.0000 </r>
       <r>  -17.1693    1.0000 </r>
       <r>  -16.3083    1.0000 </r>
       <r>  -16.2951    1.0000 </r>
       <r>  -15.9692    1.0000 </r>
       <r>  -15.6902    1.0000 </r>
       <r>  -15.5152    1.0000 </r>
       <r>  -15.4557    1.0000 </r>
       <r>  -14.7645    1.0000 </r>
       <r>  -14.7453    1.0000 </r>
       <r>  -14.6362    1.0000 </r>
       <r>  -14.4605    1.0000 </r>
       <r>  -14.3456    1.0000 </r>
       <r>  -14.1069    1.0000 </r>
       <r>  -14.0908    1.0000 </r>
       <r>  -14.0134    1.0000 </r>
       <r>  -13.7959    1.0000 </r>
       <r>  -13.7905    1.0000 </r>
       <r>  -13.7037    1.0000 </r>
       <r>  -13.3442    1.0000 </r>
       <r>  -13.3201    1.0000 </r>
       <r>  -13.1632    1.0000 </r>
       <r>  -12.5637    1.0000 </r>
       <r>  -12.3894    1.0000 </r>
       <r>  -12.3850    1.0000 </r>
       <r>  -12.2007    1.0000 </r>
       <r>  -11.9975    1.0000 </r>
       <r>  -11.9869    1.0000 </r>
       <r>  -11.8566    1.0000 </r>
       <r>  -11.8510    1.0000 </r>
       <r>  -11.7509    1.0000 </r>
       <r>  -11.7406    1.0000 </r>
       <r>  -11.2198    1.0000 </r>
       <r>  -11.0544    1.0000 </r>
       <r>  -11.0467    1.0000 </r>
       <r>  -10.9791    1.0000 </r>
       <r>  -10.9784    1.0000 </r>
       <r>  -10.8414    1.0000 </r>
       <r>  -10.8305    1.0000 </r>
       <r>  -10.6608    1.0000 </r>
       <r>  -10.4896    1.0000 </r>
       <r>  -10.4352    1.0000 </r>
       <r>  -10.4337    1.0000 </r>
       <r>  -10.2600    1.0000 </r>
       <r>  -10.2187    1.0000 </r>
       <r>  -10.1774    1.0000 </r>
       <r>  -10.1667    1.0000 </r>
       <r>  -10.1441    1.0000 </r>
       <r>  -10.0348    1.0000 </r>
       <r>  -10.0265    1.0000 </r>
       <r>  -10.0130    1.0000 </r>
       <r>   -9.9980    1.0000 </r>
       <r>   -9.7950    1.0000 </r>
       <r>   -9.7410    1.0000 </r>
       <r>   -9.7400    1.0000 </r>
       <r>   -9.6109    1.0000 </r>
       <r>   -9.5486    1.0000 </r>
       <r>   -9.3815    1.0000 </r>
       <r>   -8.9653    1.0000 </r>
       <r>   -8.9629    1.0000 </r>
       <r>   -8.9148    1.0000 </r>
       <r>   -8.9122    1.0000 </r>
       <r>   -8.9042    1.0000 </r>
       <r>   -8.7348    1.0000 </r>
       <r>   -8.7310    1.0000 </r>
       <r>   -8.7143    1.0000 </r>
       <r>   -8.5756    1.0000 </r>
       <r>   -8.5072    1.0000 </r>
       <r>   -8.4976    1.0000 </r>
       <r>   -8.2482    1.0000 </r>
       <r>   -8.2443    1.0000 </r>
       <r>   -7.8758    1.0000 </r>
       <r>   -7.7744    1.0000 </r>
       <r>   -7.7727    1.0000 </r>
       <r>   -7.0254    1.0000 </r>
       <r>   -7.0207    1.0000 </r>
       <r>   -6.8032    1.0000 </r>
       <r>   -6.8026    1.0000 </r>
       <r>   -6.7883    1.0000 </r>
       <r>   -6.7625    1.0000 </r>
       <r>   -6.7594    1.0000 </r>
       <r>   -6.2357    1.0000 </r>
       <r>   -6.0031    1.0000 </r>
       <r>   -5.9546    1.0000 </r>
       <r>   -5.9451    1.0000 </r>
       <r>   -5.8892    1.0000 </r>
       <r>   -5.8876    1.0000 </r>
       <r>   -5.8851    1.0000 </r>
       <r>   -5.7087    1.0000 </r>
       <r>   -5.7076    1.0000 </r>
       <r>   -5.0009    1.0000 </r>
       <r>   -4.9951    1.0000 </r>
       <r>   -4.9451    1.0000 </r>
       <r>   -3.5574    0.0000 </r>
       <r>   -3.5515    0.0000 </r>
       <r>   -3.2137    0.0000 </r>
       <r>   -3.2082    0.0000 </r>
       <r>   -2.0443    0.0000 </r>
       <r>   -1.3732    0.0000 </r>
       <r>   -1.0918    0.0000 </r>
       <r>   -1.0701    0.0000 </r>
       <r>   -0.9911    0.0000 </r>
       <r>   -0.8149    0.0000 </r>
       <r>   -0.7938    0.0000 </r>
       <r>   -0.5040    0.0000 </r>
[...]
     <dimension dim="2">spin</dimension>
     <field>energy</field>
     <field>total</field>
     <field>integrated</field>
     <set>
      <set comment="spin 1">
       <r>   -28.2504     0.0000     0.0000 </r>
       <r>   -28.1463     0.0000     0.0000 </r>
       <r>   -28.0422     0.0000     0.0000 </r>
       <r>   -27.9381     0.0000     0.0000 </r>
       <r>   -27.8339     0.0000     0.0000 </r>
       <r>   -27.7298     0.0000     0.0000 </r>
       <r>   -27.6257     0.0000     0.0000 </r>
       <r>   -27.5216     0.0000     0.0000 </r>
       <r>   -27.4175     0.0000     0.0000 </r>
       <r>   -27.3133     0.0000     0.0000 </r>
       <r>   -27.2092     0.0000     0.0000 </r>
       <r>   -27.1051     0.0000     0.0000 </r>
       <r>   -27.0010     0.0000     0.0000 </r>
       <r>   -26.8969     0.0000     0.0000 </r>
       <r>   -26.7927    57.6260     6.0000 </r>
       <r>   -26.6886     0.0000     6.0000 </r>
       <r>   -26.5845    19.2085     8.0000 </r>
       <r>   -26.4804     0.0000     8.0000 </r>
       <r>   -26.3763    19.2052     9.9996 </r>
       <r>   -26.2721     0.0000    10.0000 </r>
       <r>   -26.1680    22.9977    12.3945 </r>
       <r>   -26.0639     0.0000    14.0000 </r>
       <r>   -25.9598    36.8621    17.8381 </r>
       <r>   -25.8557     0.0000    18.0000 </r>
       <r>   -25.7515    13.9820    19.4558 </r>
       <r>   -25.6474     0.0000    20.0000 </r>
       <r>   -25.5433    19.0900    21.9876 </r>
       <r>   -25.4392     0.0000    22.0000 </r>
       <r>   -25.3351     0.0000    22.0000 </r>
       <r>   -25.2309     0.0000    22.0000 </r>
       <r>   -25.1268     0.0000    22.0000 </r>
       <r>   -25.0227     0.0000    22.0000 </r>
       <r>   -24.9186     0.0000    22.0000 </r>
       <r>   -24.8145     0.0000    22.0000 </r>
       <r>   -24.7103     0.0000    22.0000 </r>
       <r>   -24.6062     0.0000    22.0000 </r>
       <r>   -24.5021     0.0000    22.0000 </r>
       <r>   -24.3980     0.0000    22.0000 </r>
       <r>   -24.2939     0.0000    22.0000 </r>
       <r>   -24.1897     0.0000    22.0000 </r>
       <r>   -24.0856     0.0000    22.0000 </r>
       <r>   -23.9815     0.0000    22.0000 </r>
       <r>   -23.8774    38.3954    25.9977 </r>
       <r>   -23.7733    17.7118    27.8441 </r>
       <r>   -23.6691    22.5973    30.3528 </r>
       <r>   -23.5650     1.3336    32.1389 </r>
       <r>   -23.4609     0.0000    34.0000 </r>
       <r>   -23.3568     0.0000    34.0000 </r>
       <r>   -23.2527     0.0000    34.0000 </r>
       <r>   -23.1485     0.0000    34.0000 </r>
       <r>   -23.0444     0.0001    34.0000 </r>
       <r>   -22.9403    38.4173    38.0000 </r>
       <r>   -22.8362     0.0000    38.0000 </r>
       <r>   -22.7321    38.4173    42.0000 </r>
       <r>   -22.6279     0.0000    42.0000 </r>
       <r>   -22.5238     0.0000    42.0000 </r>
       <r>   -22.4197     0.0000    42.0000 </r>
       <r>   -22.3156     0.0000    42.0000 </r>
       <r>   -22.2115     0.0000    42.0000 </r>
       <r>   -22.1074     0.0000    42.0000 </r>
       <r>   -22.0032     0.0000    42.0000 </r>
       <r>   -21.8991     0.0000    42.0000 </r>
       <r>   -21.7950     0.0000    42.0000 </r>
       <r>   -21.6909     0.0000    42.0000 </r>
       <r>   -21.5868     0.0000    42.0000 </r>
       <r>   -21.4826     0.0000    42.0000 </r>
       <r>   -21.3785     0.0000    42.0000 </r>
       <r>   -21.2744     0.0000    42.0000 </r>
       <r>   -21.1703     0.0000    42.0000 </r>
       <r>   -21.0662     0.0000    42.0000 </r>
       <r>   -20.9620    57.6260    48.0000 </r>
       <r>   -20.8579     0.0000    48.0000 </r>
       <r>   -20.7538     0.0000    48.0000 </r>
       <r>   -20.6497     0.0000    48.0000 </r>
       <r>   -20.5456     0.0000    48.0000 </r>
       <r>   -20.4414     0.0000    48.0000 </r>
       <r>   -20.3373     0.0000    48.0000 </r>
       <r>   -20.2332     0.0000    48.0000 </r>
       <r>   -20.1291     0.0000    48.0000 </r>
       <r>   -20.0250     0.0000    48.0000 </r>
       <r>   -19.9208     0.0000    48.0000 </r>
       <r>   -19.8167     0.0000    48.0000 </r>
       <r>   -19.7126     0.0000    48.0000 </r>
       <r>   -19.6085     0.0000    48.0000 </r>
       <r>   -19.5044     0.0000    48.0000 </r>
       <r>   -19.4002     0.0000    48.0000 </r>
       <r>   -19.2961     0.0000    48.0000 </r>
       <r>   -19.1920     0.0000    48.0000 </r>
       <r>   -19.0879    34.7124    51.6142 </r>
       <r>   -18.9838    11.8227    53.2310 </r>
       <r>   -18.8796     5.4424    54.0000 </r>
       <r>   -18.7755     0.0000    54.0000 </r>
       <r>   -18.6714     0.0000    54.0000 </r>
       <r>   -18.5673     0.0000    54.0000 </r>
       <r>   -18.4632    55.4689    59.7754 </r>
       <r>   -18.3590     0.0000    60.0000 </r>
       <r>   -18.2549    21.1424    62.2013 </r>
       <r>   -18.1508     3.3663    62.7838 </r>
       <r>   -18.0467     6.8732    63.5823 </r>
       <r>   -17.9426     1.9208    64.0000 </r>
       <r>   -17.8384     4.7435    64.4939 </r>
       <r>   -17.7343     3.9500    65.1446 </r>
       <r>   -17.6302     1.9007    65.3979 </r>
       <r>   -17.5261     1.9111    65.6323 </r>
       <r>   -17.4220    14.8479    67.2460 </r>
       <r>   -17.3178     0.0000    68.0000 </r>
       <r>   -17.2137     1.6053    68.1671 </r>
       <r>   -17.1096     1.7758    68.4182 </r>
       <r>   -17.0055     1.8910    68.6302 </r>
       <r>   -16.9014     1.8143    68.8556 </r>
       <r>   -16.7973     3.9521    69.3448 </r>
       <r>   -16.6931     4.4820    70.0000 </r>
       <r>   -16.5890     0.9629    70.1003 </r>
       <r>   -16.4849     6.5581    71.0162 </r>
       <r>   -16.3808     2.5282    71.3632 </r>
       <r>   -16.2767    24.5374    73.9882 </r>
       <r>   -16.1725     0.0000    74.0000 </r>
       <r>   -16.0684     0.0000    74.0000 </r>
       <r>   -15.9643    13.2601    75.3806 </r>
       <r>   -15.8602     0.0004    76.0000 </r>
       <r>   -15.7561    13.9047    77.4478 </r>
       <r>   -15.6519     3.2152    77.9014 </r>
       <r>   -15.5478     0.0000    78.0000 </r>
       <r>   -15.4437    22.2135    80.3129 </r>
       <r>   -15.3396     1.9921    80.5741 </r>
       <r>   -15.2355     2.0819    80.8501 </r>
       <r>   -15.1313     5.8014    81.5374 </r>
       <r>   -15.0272     2.8819    82.0001 </r>
       <r>   -14.9231     8.5467    82.9899 </r>
       <r>   -14.8190     3.2652    83.4400 </r>
       <r>   -14.7149    23.3688    85.9998 </r>
       <r>   -14.6107     4.5382    86.4725 </r>
       <r>   -14.5066    11.6700    87.8484 </r>
       <r>   -14.4025    14.7354    90.0009 </r>
       <r>   -14.2984    10.8846    92.0000 </r>
       <r>   -14.1943     3.5801    92.3728 </r>
       <r>   -14.0901    20.6548    95.3506 </r>
       <r>   -13.9860     4.8055    96.5003 </r>
       <r>   -13.8819    12.5261    98.0042 </r>
       <r>   -13.7778    32.3942   101.8729 </r>
       <r>   -13.6737     5.9163   102.6160 </r>
       <r>   -13.5695    10.8849   104.0000 </r>
       <r>   -13.4654    10.3938   105.0822 </r>
       <r>   -13.3613     3.8119   105.6302 </r>
       <r>   -13.2572    21.4497   108.0000 </r>
       <r>   -13.1531     3.1950   108.3327 </r>
       <r>   -13.0489     4.4385   108.8955 </r>
       <r>   -12.9448     5.1221   110.0000 </r>
       <r>   -12.8407     0.0000   110.0000 </r>
       <r>   -12.7366     0.0000   110.0000 </r>
       <r>   -12.6325     0.0000   110.0000 </r>
       <r>   -12.5283    19.2087   112.0000 </r>
       <r>   -12.4242     0.0000   112.0000 </r>
       <r>   -12.3201    38.4173   116.0000 </r>
       <r>   -12.2160     0.2826   116.0294 </r>
       <r>   -12.1119     0.0000   118.0000 </r>
       <r>   -12.0077    14.0725   119.4652 </r>
       <r>   -11.9036     6.9020   122.5853 </r>
       <r>   -11.7995    28.0562   126.1546 </r>
       <r>   -11.6954    24.5306   129.1541 </r>
       <r>   -11.5913     0.0000   130.0000 </r>
       <r>   -11.4871     0.0000   130.0000 </r>
       <r>   -11.3830     0.0000   130.0000 </r>
       <r>   -11.2789     0.0000   130.0000 </r>
       <r>   -11.1748     6.8792   130.7163 </r>
       <r>   -11.0707    11.0847   132.0875 </r>
       <r>   -10.9666    44.7628   139.9274 </r>
       <r>   -10.8624    14.5425   141.5142 </r>
       <r>   -10.7583    21.7696   144.0000 </r>
       <r>   -10.6542     3.1941   144.3326 </r>
       <r>   -10.5501     4.9284   145.0131 </r>
       <r>   -10.4460    32.8822   148.9904 </r>
       <r>   -10.3418     9.1296   152.9506 </r>
       <r>   -10.2377    23.4482   155.5748 </r>
       <r>   -10.1336    45.9757   160.5537 </r>
       <r>   -10.0295    23.2208   164.4177 </r>
       <r>    -9.9254     5.5396   168.7768 </r>
       <r>    -9.8212     9.6049   170.0001 </r>
       <r>    -9.7171    57.6124   175.9986 </r>
       <r>    -9.6130     3.6735   176.3825 </r>
       <r>    -9.5089    10.8847   180.0000 </r>
       <r>    -9.4048     0.0361   180.0038 </r>
       <r>    -9.3006     0.0000   182.0000 </r>
       <r>    -9.1965     0.0000   182.0000 </r>
       <r>    -9.0924     0.0000   182.0000 </r>
       <r>    -8.9883     0.0119   182.0012 </r>
       <r>    -8.8842    76.2925   191.9437 </r>
       <r>    -8.7800     0.0000   192.0000 </r>
       <r>    -8.6759    57.6260   198.0000 </r>
       <r>    -8.5718    17.5711   199.8295 </r>
       <r>    -8.4677    25.6590   202.6716 </r>
       <r>    -8.3636     9.2840   204.0000 </r>
       <r>    -8.2594    14.3647   205.4957 </r>
       <r>    -8.1553     0.0000   208.0000 </r>
       <r>    -8.0512     0.0000   208.0000 </r>
       <r>    -7.9471     0.0000   208.0000 </r>
       <r>    -7.8430    19.1471   209.9936 </r>
       <r>    -7.7388    38.4173   214.0000 </r>
       <r>    -7.6347     0.0000   214.0000 </r>
       <r>    -7.5306     0.0000   214.0000 </r>
       <r>    -7.4265     0.0000   214.0000 </r>
       <r>    -7.3224     0.0000   214.0000 </r>
       <r>    -7.2182     0.0000   214.0000 </r>
       <r>    -7.1141     0.0000   214.0000 </r>
       <r>    -7.0100    36.8971   217.8417 </r>
       <r>    -6.9059     0.0000   218.0000 </r>
       <r>    -6.8018    24.1371   220.5131 </r>
       <r>    -6.6976    38.4173   228.0000 </r>
       <r>    -6.5935     0.0000   228.0000 </r>
       <r>    -6.4894     0.0000   228.0000 </r>
       <r>    -6.3853     0.0000   228.0000 </r>
       <r>    -6.2812     0.0000   228.0000 </r>
       <r>    -6.1770    19.2087   230.0000 </r>
       <r>    -6.0729     0.0001   230.0000 </r>
       <r>    -5.9688    19.6432   232.0453 </r>
       <r>    -5.8647    73.8957   241.9940 </r>
       <r>    -5.7606     0.0000   242.0000 </r>
       <r>    -5.6565    38.4173   246.0000 </r>
       <r>    -5.5523     0.0000   246.0000 </r>
       <r>    -5.4482     0.0000   246.0000 </r>
       <r>    -5.3441     0.0000   246.0000 </r>
       <r>    -5.2400     0.0000   246.0000 </r>
       <r>    -5.1359     0.0000   246.0000 </r>
       <r>    -5.0317     0.0001   246.0000 </r>
       <r>    -4.9276    57.5889   251.9961 </r>
       <r>    -4.8235     0.0000   252.0000 </r>
       <r>    -4.7194     0.0000   252.0000 </r>
       <r>    -4.6153     0.0000   252.0000 </r>
       <r>    -4.5111     0.0000   252.0000 </r>
       <r>    -4.4070     0.0000   252.0000 </r>
       <r>    -4.3029     0.0000   252.0000 </r>
       <r>    -4.1988     0.0000   252.0000 </r>
       <r>    -4.0947     0.0000   252.0000 </r>
       <r>    -3.9905     0.0000   252.0000 </r>
       <r>    -3.8864     0.0000   252.0000 </r>
       <r>    -3.7823     0.0000   252.0000 </r>
       <r>    -3.6782     0.0000   252.0000 </r>
       <r>    -3.5741     0.1666   252.0173 </r>
       <r>    -3.4699    16.0069   256.0000 </r>
       <r>    -3.3658     0.0000   256.0000 </r>
       <r>    -3.2617    11.1997   257.1661 </r>
       <r>    -3.1576    24.6511   260.0000 </r>
       <r>    -3.0535     0.0000   260.0000 </r>
       <r>    -2.9493     0.0000   260.0000 </r>
       <r>    -2.8452     0.0000   260.0000 </r>
       <r>    -2.7411     0.0000   260.0000 </r>
       <r>    -2.6370     0.0000   260.0000 </r>
       <r>    -2.5329     0.0000   260.0000 </r>
       <r>    -2.4287     0.0000   260.0000 </r>
       <r>    -2.3246     0.0000   260.0000 </r>
       <r>    -2.2205     0.0000   260.0000 </r>
       <r>    -2.1164     0.0000   260.0000 </r>
       <r>    -2.0123     4.8334   260.5033 </r>
       <r>    -1.9081     3.2985   260.9768 </r>
       <r>    -1.8040     7.6832   262.0000 </r>
       <r>    -1.6999     0.7591   262.0790 </r>
       <r>    -1.5958     6.9976   263.0619 </r>
       <r>    -1.4917     2.2086   263.3633 </r>
       <r>    -1.3875     2.2425   263.6668 </r>
       <r>    -1.2834     2.2410   264.0000 </r>
       <r>    -1.1793     0.0000   264.0000 </r>
       <r>    -1.0752    21.2556   266.2131 </r>
       <r>    -0.9711    34.2333   269.9977 </r>
       <r>    -0.8669     0.0000   270.0000 </r>
       <r>    -0.7628    23.4404   272.4406 </r>
       <r>    -0.6587     2.5100   272.7947 </r>
       <r>    -0.5546     4.8560   273.3723 </r>
       <r>    -0.4505    22.0366   275.8611 </r>
       <r>    -0.3463    35.9246   280.3405 </r>
       <r>    -0.2422     8.0772   281.8410 </r>
       <r>    -0.1381     3.8983   283.7059 </r>
       <r>    -0.0340     0.0000   284.0000 </r>
       <r>     0.0701     8.4686   284.8818 </r>
       <r>     0.1742    21.9545   288.0526 </r>
       <r>     0.2784    12.1654   290.0000 </r>
       <r>     0.3825     0.0003   290.0000 </r>
       <r>     0.4866    29.7266   293.0952 </r>
       <r>     0.5907    39.6610   297.9295 </r>
       <r>     0.6948    55.7953   304.5428 </r>
       <r>     0.7990    34.4141   310.4166 </r>
       <r>     0.9031    39.9214   315.6566 </r>
       <r>     1.0072    42.8664   321.2633 </r>
       <r>     1.1113    60.4208   329.1911 </r>
       <r>     1.2154    45.1471   336.5008 </r>
       <r>     1.3196    36.5336   341.5039 </r>
       <r>     1.4237    38.7519   346.9349 </r>
       <r>     1.5278    25.5535   350.8607 </r>
       <r>     1.6319     6.0827   352.0000 </r>
       <r>     1.7360     0.0000   352.0000 </r>
       <r>     1.8402     0.0000   352.0000 </r>
       <r>     1.9443     0.0000   352.0000 </r>
       <r>     2.0484     0.0000   352.0000 </r>
       <r>     2.1525     0.0000   352.0000 </r>
       <r>     2.2566     0.0000   352.0000 </r>
       <r>     2.3608     0.0000   352.0000 </r>
       <r>     2.4649     0.0000   352.0000 </r>
       <r>     2.5690     0.0000   352.0000 </r>
       <r>     2.6731     0.0000   352.0000 </r>
       <r>     2.7772     0.0000   352.0000 </r>
       <r>     2.8814     0.0000   352.0000 </r>
       <r>     2.9855     0.0000   352.0000 </r>
      </set>
     </set>
    </array>
   </total>
  </dos>
 </calculation>
 <structure name="finalpos" >
  <crystal>
   <varray name="basis" >
    <v>      21.84813196       0.00729268       0.00000000 </v>
    <v>     -10.91754403      18.82112240       0.00000000 </v>
    <v>       0.00000000       0.00000000      20.00000000 </v>
   </varray>
   <i name="volume">   8225.71967748 </i>
   <varray name="rec_basis" >
    <v>       0.04576164       0.02654490       0.00000000 </v>
    <v>      -0.00001773       0.05312151       0.00000000 </v>
    <v>       0.00000000       0.00000000       0.05000000 </v>
   </varray>
  </crystal>
  <varray name="positions" >
   <v>       0.48733633       0.30593322       0.46947648 </v>
   <v>       0.68562318       0.17397316       0.47133183 </v>
   <v>       0.81858729       0.50595622       0.47055057 </v>
   <v>       0.50645195       0.68546422       0.53977906 </v>
   <v>       0.30491914       0.81399657       0.53930852 </v>
   <v>       0.17595812       0.48229840       0.53819613 </v>
   <v>       0.35265030       0.42623825       0.51492087 </v>
   <v>       0.07388142       0.63857013       0.51752590 </v>
   <v>       0.56311197       0.91780408       0.51711487 </v>
   <v>       0.71899640       0.31577351       0.46800729 </v>
   <v>       0.67683080       0.39750054       0.46594364 </v>
   <v>       0.59533611       0.27317001       0.46576402 </v>
   <v>       0.27318262       0.67247915       0.54219815 </v>
   <v>       0.31700050       0.59210792       0.54153783 </v>
   <v>       0.39714061       0.71666938       0.54262304 </v>
   <v>       0.42194963       0.56566817       0.53007356 </v>
   <v>       0.14167037       0.56759216       0.53198169 </v>
   <v>       0.42426202       0.84878964       0.53156478 </v>
   <v>       0.57284618       0.42566285       0.47714971 </v>
   <v>       0.85076864       0.41915860       0.47988176 </v>
   <v>       0.56644634       0.14057719       0.47751954 </v>
   <v>       0.43077135       0.36455275       0.48813636 </v>
   <v>       0.33167319       0.37532642       0.50796022 </v>
   <v>       0.36806404       0.53327991       0.53086087 </v>
   <v>       0.93381938       0.56169880       0.49100450 </v>
   <v>       0.04487398       0.66035720       0.51052932 </v>
   <v>       0.16384337       0.62174739       0.53324074 </v>
   <v>       0.62600273       0.05809238       0.48975810 </v>
   <v>       0.61388184       0.94727977       0.51020766 </v>
   <v>       0.45622301       0.82683191       0.53281347 </v>
   <v>       0.56517802       0.62746761       0.51950694 </v>
   <v>       0.62929525       0.56252687       0.49475177 </v>
   <v>       0.62681672       0.45663357       0.47589658 </v>
   <v>       0.05827179       0.42394396       0.52089463 </v>
   <v>       0.92916612       0.36098546       0.49658525 </v>
   <v>       0.82684833       0.36489001       0.47877932 </v>
   <v>       0.36398403       0.93172868       0.51956990 </v>
   <v>       0.42990231       0.06108660       0.49412891 </v>
   <v>       0.53602696       0.16416888       0.47572670 </v>
   <v>       0.72872873       0.38195002       0.46738990 </v>
   <v>       0.61089841       0.34090082       0.46593974 </v>
   <v>       0.80434189       0.44348174       0.47207003 </v>
   <v>       0.54936587       0.35472570       0.47021987 </v>
   <v>       0.63731261       0.18774863       0.47144765 </v>
   <v>       0.26447582       0.60673783       0.54173406 </v>
   <v>       0.38249511       0.64924951       0.54186373 </v>
   <v>       0.18922700       0.54441484       0.53781388 </v>
   <v>       0.44466999       0.63640193       0.53786342 </v>
   <v>       0.35359569       0.80086259       0.53831027 </v>
   <v>       0.46222223       0.53357129       0.51786869 </v>
   <v>       0.42479246       0.45890972       0.50905477 </v>
   <v>       0.45983932       0.42194767       0.49501505 </v>
   <v>       0.06925643       0.52783608       0.51996135 </v>
   <v>       0.03320336       0.56622739       0.51152296 </v>
   <v>       0.96123013       0.53188635       0.49765982 </v>
   <v>       0.45686921       0.92142034       0.51905135 </v>
   <v>       0.53127500       0.95806379       0.51061201 </v>
   <v>       0.56879972       0.03023862       0.49626545 </v>
   <v>       0.65154778       0.26354894       0.46706260 </v>
   <v>       0.34037579       0.72533396       0.54228932 </v>
   <v>       0.53400063       0.45943223       0.48980543 </v>
   <v>       0.57170798       0.53355190       0.49863037 </v>
   <v>       0.53635015       0.57020323       0.51255983 </v>
   <v>       0.92341974       0.45743938       0.49229653 </v>
   <v>       0.95867994       0.41878567       0.50070369 </v>
   <v>       0.03066339       0.45345458       0.51442077 </v>
   <v>       0.53212070       0.06769851       0.49031357 </v>
   <v>       0.45825244       0.03186607       0.49864972 </v>
   <v>       0.42105213       0.95969308       0.51295861 </v>
  </varray>
 </structure>
</modeling>
