<?xml version="1.0" encoding="ISO-8859-1"?>
<modeling>
 <generator>
  <i name="program" type="string">vasp </i>
  <i name="version" type="string">5.4.4.18Apr17-6-g9f103f2a35  </i>
  <i name="subversion" type="string">(build Jun 07 2020 16:50:00) complex            parallel </i>
  <i name="platform" type="string">LinuxIFC </i>
  <i name="date" type="string">2023 02 28 </i>
  <i name="time" type="string">08:44:52 </i>
 </generator>
 <incar>
  <i type="string" name="SYSTEM">Simulation for cell shape cell volume r</i>
  <i type="int" name="ISTART">     1</i>
  <i type="string" name="PREC">high</i>
  <i type="string" name="ALGO">48</i>
  <i type="int" name="ICHARG">    11</i>
  <i type="int" name="NELM">   200</i>
  <i type="int" name="IBRION">    -1</i>
  <i name="EDIFF">      0.00001000</i>
  <i name="EDIFFG">     -0.01000000</i>
  <i type="int" name="NSW">     0</i>
  <i type="int" name="ISIF">     2</i>
  <i name="ENCUT">    500.00000000</i>
  <i name="POTIM">      0.30000000</i>
  <i type="string" name="LREAL">A</i>
  <i type="int" name="ISMEAR">     0</i>
  <i name="SIGMA">      0.01000000</i>
  <i type="int" name="NWRITE">     0</i>
  <i type="logical" name="LWAVE"> F  </i>
  <i type="logical" name="LCHARG"> F  </i>
  <v type="int" name="KPOINT_BSE">    -1     0     0     0</v>
  <i type="int" name="NELM">   200</i>
  <i type="string" name="GGA">PE</i>
 </incar>
 <structure name="primitive_cell" >
  <crystal>
   <varray name="basis" >
    <v>      22.02563701      -0.00000002       0.00000000 </v>
    <v>     -11.01281849      19.07476120       0.00000000 </v>
    <v>       0.00000000       0.00000000      20.00000000 </v>
   </varray>
   <i name="volume">   8402.67532097 </i>
   <varray name="rec_basis" >
    <v>       0.04540164       0.02621265       0.00000000 </v>
    <v>       0.00000000       0.05242530       0.00000000 </v>
    <v>       0.00000000       0.00000000       0.05000000 </v>
   </varray>
  </crystal>
  <varray name="positions" >
   <v>       0.38011240       0.19677006       0.36643682 </v>
   <v>       0.41637948       0.19752391       0.31871445 </v>
   <v>       0.31821224       0.18272299       0.36201326 </v>
   <v>       0.41307370       0.21424555       0.43329913 </v>
   <v>       0.48589810       0.24622655       0.43556780 </v>
   <v>       0.37234257       0.20036596       0.49133528 </v>
   <v>      -0.48545932       0.25541576       0.38882152 </v>
   <v>       0.29425536       0.16121525       0.49192077 </v>
   <v>       0.25994142       0.08768450       0.49419640 </v>
   <v>       0.34645868       0.30512358       0.47817586 </v>
   <v>       0.29153153       0.06222303       0.49307910 </v>
   <v>      -0.47978790       0.26627098       0.49694236 </v>
   <v>       0.40803240       0.21915036      -0.44735907 </v>
   <v>       0.25206670       0.19242448       0.49509536 </v>
   <v>       0.28359802       0.26954322       0.49347582 </v>
   <v>       0.48090122       0.25249094      -0.44433091 </v>
   <v>       0.37765080       0.20776952      -0.40137136 </v>
   <v>       0.18724759       0.04728449       0.49664518 </v>
   <v>       0.17938669       0.15278099       0.49790105 </v>
   <v>      -0.40173840       0.30199884       0.49868216 </v>
   <v>       0.14611250       0.07957980       0.49790335 </v>
   <v>       0.24529118       0.29406608      -0.49258315 </v>
   <v>      -0.49278214       0.26746874      -0.39595852 </v>
   <v>       0.16145118      -0.00973681       0.49729424 </v>
   <v>      -0.37245700       0.26115082       0.49872776 </v>
   <v>       0.14874337       0.17906288       0.49937793 </v>
   <v>      -0.36639218       0.37245700       0.49872776 </v>
   <v>       0.06867138       0.03738803       0.49859104 </v>
   <v>      -0.30199884       0.29626276       0.49868216 </v>
   <v>      -0.29626276       0.40173840       0.49868216 </v>
   <v>       0.03920977      -0.03274149       0.49861605 </v>
   <v>       0.03274149       0.07195126       0.49861605 </v>
   <v>      -0.25912492       0.48545932       0.38882152 </v>
   <v>      -0.26115082       0.36639218       0.49872776 </v>
   <v>      -0.25541576       0.25912492       0.38882152 </v>
   <v>      -0.26627098       0.25394113       0.49694236 </v>
   <v>      -0.25394113       0.47978790       0.49694236 </v>
   <v>      -0.23967155      -0.48589810       0.43556780 </v>
   <v>      -0.24622655       0.23967155       0.43556780 </v>
   <v>       0.03031951      -0.14874337       0.49937793 </v>
   <v>       0.00973681       0.17118800       0.49729424 </v>
   <v>      -0.03128335      -0.06867138       0.49859104 </v>
   <v>      -0.03738803       0.03128335       0.49859104 </v>
   <v>      -0.25249094       0.22841028      -0.44433091 </v>
   <v>      -0.21885557      -0.41637948       0.31871445 </v>
   <v>      -0.26746874       0.23974911      -0.39595852 </v>
   <v>      -0.22841028      -0.48090122      -0.44433091 </v>
   <v>      -0.23974911       0.49278214      -0.39595852 </v>
   <v>      -0.21424555       0.19882815       0.43329913 </v>
   <v>      -0.07195126      -0.03920977       0.49861605 </v>
   <v>      -0.02660570      -0.17938669       0.49790105 </v>
   <v>      -0.19882815      -0.41307370       0.43329913 </v>
   <v>      -0.19752391       0.21885557       0.31871445 </v>
   <v>       0.04877490      -0.24529118      -0.49258315 </v>
   <v>      -0.04728449       0.13996310       0.49664518 </v>
   <v>      -0.06653270      -0.14611250       0.49790335 </v>
   <v>      -0.30512358       0.04133509       0.47817586 </v>
   <v>      -0.07957980       0.06653270       0.49790335 </v>
   <v>      -0.18334234      -0.38011240       0.36643682 </v>
   <v>      -0.19677006       0.18334234       0.36643682 </v>
   <v>      -0.21915036       0.18888205      -0.44735907 </v>
   <v>      -0.20036596       0.17197661       0.49133528 </v>
   <v>      -0.18888205      -0.40803240      -0.44735907 </v>
   <v>      -0.17197661      -0.37234257       0.49133528 </v>
   <v>      -0.01405480      -0.28359802       0.49347582 </v>
   <v>      -0.05964222      -0.25206670       0.49509536 </v>
   <v>      -0.08768450       0.17225692       0.49419640 </v>
   <v>      -0.18272299       0.13548925       0.36201326 </v>
   <v>      -0.06222303       0.22930849       0.49307910 </v>
   <v>      -0.20776952       0.16988128      -0.40137136 </v>
   <v>      -0.22930849      -0.29153153       0.49307910 </v>
   <v>      -0.13996310      -0.18724759       0.49664518 </v>
   <v>      -0.26954322       0.01405480       0.49347582 </v>
   <v>      -0.13548925      -0.31821224       0.36201326 </v>
   <v>      -0.15278099       0.02660570       0.49790105 </v>
   <v>      -0.16988128      -0.37765080      -0.40137136 </v>
   <v>      -0.17118800      -0.16145118       0.49729424 </v>
   <v>      -0.17906288      -0.03031951       0.49937793 </v>
   <v>      -0.04133509      -0.34645868       0.47817586 </v>
   <v>      -0.16121525       0.13304011       0.49192077 </v>
   <v>      -0.13304011      -0.29425536       0.49192077 </v>
   <v>      -0.29406608      -0.04877490      -0.49258315 </v>
   <v>      -0.17225692      -0.25994142       0.49419640 </v>
   <v>      -0.19242448       0.05964222       0.49509536 </v>
  </varray>
 </structure>
 <varray name="primitive_index" >
  <v type="int" >        1 </v>
  <v type="int" >       55 </v>
  <v type="int" >       56 </v>
  <v type="int" >       14 </v>
  <v type="int" >       15 </v>
  <v type="int" >       13 </v>
  <v type="int" >       67 </v>
  <v type="int" >       44 </v>
  <v type="int" >       43 </v>
  <v type="int" >       65 </v>
  <v type="int" >       77 </v>
  <v type="int" >       16 </v>
  <v type="int" >       18 </v>
  <v type="int" >       53 </v>
  <v type="int" >       12 </v>
  <v type="int" >       17 </v>
  <v type="int" >       69 </v>
  <v type="int" >       42 </v>
  <v type="int" >       54 </v>
  <v type="int" >       19 </v>
  <v type="int" >       41 </v>
  <v type="int" >       66 </v>
  <v type="int" >       68 </v>
  <v type="int" >       76 </v>
  <v type="int" >        2 </v>
  <v type="int" >       84 </v>
  <v type="int" >        3 </v>
  <v type="int" >       23 </v>
  <v type="int" >       20 </v>
  <v type="int" >       21 </v>
  <v type="int" >        6 </v>
  <v type="int" >        5 </v>
  <v type="int" >       70 </v>
  <v type="int" >        4 </v>
  <v type="int" >       73 </v>
  <v type="int" >       40 </v>
  <v type="int" >       32 </v>
  <v type="int" >       31 </v>
  <v type="int" >       39 </v>
  <v type="int" >       78 </v>
  <v type="int" >       74 </v>
  <v type="int" >       24 </v>
  <v type="int" >       22 </v>
  <v type="int" >       51 </v>
  <v type="int" >       58 </v>
  <v type="int" >       82 </v>
  <v type="int" >       47 </v>
  <v type="int" >       79 </v>
  <v type="int" >       38 </v>
  <v type="int" >        7 </v>
  <v type="int" >       46 </v>
  <v type="int" >       30 </v>
  <v type="int" >       60 </v>
  <v type="int" >       63 </v>
  <v type="int" >       34 </v>
  <v type="int" >       25 </v>
  <v type="int" >       64 </v>
  <v type="int" >       33 </v>
  <v type="int" >        8 </v>
  <v type="int" >        9 </v>
  <v type="int" >       52 </v>
  <v type="int" >       37 </v>
  <v type="int" >       48 </v>
  <v type="int" >       29 </v>
  <v type="int" >       10 </v>
  <v type="int" >       45 </v>
  <v type="int" >       35 </v>
  <v type="int" >       61 </v>
  <v type="int" >       75 </v>
  <v type="int" >       83 </v>
  <v type="int" >       72 </v>
  <v type="int" >       26 </v>
  <v type="int" >       11 </v>
  <v type="int" >       59 </v>
  <v type="int" >       50 </v>
  <v type="int" >       80 </v>
  <v type="int" >       71 </v>
  <v type="int" >       81 </v>
  <v type="int" >       62 </v>
  <v type="int" >       36 </v>
  <v type="int" >       28 </v>
  <v type="int" >       57 </v>
  <v type="int" >       27 </v>
  <v type="int" >       49 </v>
 </varray>
 <kpoints>
  <generation param="listgenerated">
   <i name="divisions" type="int">      20 </i>
   <v>       0.00000000       0.00000000       0.00000000 </v>
   <v>       0.50000000       0.00000000       0.00000000 </v>
   <v>       0.33333333       0.33333333       0.00000000 </v>
   <v>       0.00000000       0.00000000       0.00000000 </v>
  </generation>
  <varray name="kpointlist" >
   <v>       0.00000000       0.00000000       0.00000000 </v>
   <v>       0.02631579       0.00000000       0.00000000 </v>
   <v>       0.05263158       0.00000000       0.00000000 </v>
   <v>       0.07894737       0.00000000       0.00000000 </v>
   <v>       0.10526316       0.00000000       0.00000000 </v>
   <v>       0.13157895       0.00000000       0.00000000 </v>
   <v>       0.15789474       0.00000000       0.00000000 </v>
   <v>       0.18421053       0.00000000       0.00000000 </v>
   <v>       0.21052632       0.00000000       0.00000000 </v>
   <v>       0.23684211       0.00000000       0.00000000 </v>
   <v>       0.26315789       0.00000000       0.00000000 </v>
   <v>       0.28947368       0.00000000       0.00000000 </v>
   <v>       0.31578947       0.00000000       0.00000000 </v>
   <v>       0.34210526       0.00000000       0.00000000 </v>
   <v>       0.36842105       0.00000000       0.00000000 </v>
   <v>       0.39473684       0.00000000       0.00000000 </v>
   <v>       0.42105263       0.00000000       0.00000000 </v>
   <v>       0.44736842       0.00000000       0.00000000 </v>
   <v>       0.47368421       0.00000000       0.00000000 </v>
   <v>       0.50000000       0.00000000       0.00000000 </v>
   <v>       0.50000000       0.00000000       0.00000000 </v>
   <v>       0.49122807       0.01754386       0.00000000 </v>
   <v>       0.48245614       0.03508772       0.00000000 </v>
   <v>       0.47368421       0.05263158       0.00000000 </v>
   <v>       0.46491228       0.07017544       0.00000000 </v>
   <v>       0.45614035       0.08771930       0.00000000 </v>
   <v>       0.44736842       0.10526316       0.00000000 </v>
   <v>       0.43859649       0.12280702       0.00000000 </v>
   <v>       0.42982456       0.14035088       0.00000000 </v>
   <v>       0.42105263       0.15789474       0.00000000 </v>
   <v>       0.41228070       0.17543860       0.00000000 </v>
   <v>       0.40350877       0.19298246       0.00000000 </v>
   <v>       0.39473684       0.21052632       0.00000000 </v>
   <v>       0.38596491       0.22807018       0.00000000 </v>
   <v>       0.37719298       0.24561404       0.00000000 </v>
   <v>       0.36842105       0.26315789       0.00000000 </v>
   <v>       0.35964912       0.28070175       0.00000000 </v>
   <v>       0.35087719       0.29824561       0.00000000 </v>
   <v>       0.34210526       0.31578947       0.00000000 </v>
   <v>       0.33333333       0.33333333       0.00000000 </v>
   <v>       0.33333333       0.33333333       0.00000000 </v>
   <v>       0.31578947       0.31578947       0.00000000 </v>
   <v>       0.29824561       0.29824561       0.00000000 </v>
   <v>       0.28070175       0.28070175       0.00000000 </v>
   <v>       0.26315789       0.26315789       0.00000000 </v>
   <v>       0.24561404       0.24561404       0.00000000 </v>
   <v>       0.22807018       0.22807018       0.00000000 </v>
   <v>       0.21052632       0.21052632       0.00000000 </v>
   <v>       0.19298246       0.19298246       0.00000000 </v>
   <v>       0.17543860       0.17543860       0.00000000 </v>
   <v>       0.15789474       0.15789474       0.00000000 </v>
   <v>       0.14035088       0.14035088       0.00000000 </v>
   <v>       0.12280702       0.12280702       0.00000000 </v>
   <v>       0.10526316       0.10526316       0.00000000 </v>
   <v>       0.08771930       0.08771930       0.00000000 </v>
   <v>       0.07017544       0.07017544       0.00000000 </v>
   <v>       0.05263158       0.05263158       0.00000000 </v>
   <v>       0.03508772       0.03508772       0.00000000 </v>
   <v>       0.01754386       0.01754386       0.00000000 </v>
   <v>       0.00000000       0.00000000       0.00000000 </v>
  </varray>
  <varray name="weights" >
   <v>       0.01666667 </v>
   <v>       0.01666667 </v>
   <v>       0.01666667 </v>
   <v>       0.01666667 </v>
   <v>       0.01666667 </v>
   <v>       0.01666667 </v>
   <v>       0.01666667 </v>
   <v>       0.01666667 </v>
   <v>       0.01666667 </v>
   <v>       0.01666667 </v>
   <v>       0.01666667 </v>
   <v>       0.01666667 </v>
   <v>       0.01666667 </v>
   <v>       0.01666667 </v>
   <v>       0.01666667 </v>
   <v>       0.01666667 </v>
   <v>       0.01666667 </v>
   <v>       0.01666667 </v>
   <v>       0.01666667 </v>
   <v>       0.01666667 </v>
   <v>       0.01666667 </v>
   <v>       0.01666667 </v>
   <v>       0.01666667 </v>
   <v>       0.01666667 </v>
   <v>       0.01666667 </v>
   <v>       0.01666667 </v>
   <v>       0.01666667 </v>
   <v>       0.01666667 </v>
   <v>       0.01666667 </v>
   <v>       0.01666667 </v>
   <v>       0.01666667 </v>
   <v>       0.01666667 </v>
   <v>       0.01666667 </v>
   <v>       0.01666667 </v>
   <v>       0.01666667 </v>
   <v>       0.01666667 </v>
   <v>       0.01666667 </v>
   <v>       0.01666667 </v>
   <v>       0.01666667 </v>
   <v>       0.01666667 </v>
   <v>       0.01666667 </v>
   <v>       0.01666667 </v>
   <v>       0.01666667 </v>
   <v>       0.01666667 </v>
   <v>       0.01666667 </v>
   <v>       0.01666667 </v>
   <v>       0.01666667 </v>
   <v>       0.01666667 </v>
   <v>       0.01666667 </v>
   <v>       0.01666667 </v>
   <v>       0.01666667 </v>
   <v>       0.01666667 </v>
   <v>       0.01666667 </v>
   <v>       0.01666667 </v>
   <v>       0.01666667 </v>
   <v>       0.01666667 </v>
   <v>       0.01666667 </v>
   <v>       0.01666667 </v>
   <v>       0.01666667 </v>
   <v>       0.01666667 </v>
  </varray>
 </kpoints>
 <parameters>
  <separator name="general" >
   <i type="string" name="SYSTEM">Simulation for cell shape cell volume r</i>
   <i type="logical" name="LCOMPAT"> F  </i>
  </separator>
  <separator name="electronic" >
   <i type="string" name="PREC">high</i>
   <i name="ENMAX">    500.00000000</i>
   <i name="ENAUG">    644.87300000</i>
   <i name="EDIFF">      0.00001000</i>
   <i type="int" name="IALGO">    38</i>
   <i type="int" name="IWAVPR">    10</i>
   <i type="int" name="NBANDS">   208</i>
   <i name="NELECT">    318.00000000</i>
   <i type="int" name="TURBO">     0</i>
   <i type="int" name="IRESTART">     0</i>
   <i type="int" name="NREBOOT">     0</i>
   <i type="int" name="NMIN">     0</i>
   <i name="EREF">      0.00000000</i>
   <separator name="electronic smearing" >
    <i type="int" name="ISMEAR">     0</i>
    <i name="SIGMA">      0.01000000</i>
    <i name="KSPACING">      0.50000000</i>
    <i type="logical" name="KGAMMA"> T  </i>
   </separator>
   <separator name="electronic projectors" >
    <i type="logical" name="LREAL"> T  </i>
    <v name="ROPT">     -0.00040000     -0.00040000     -0.00040000     -0.00040000</v>
    <i type="int" name="LMAXPAW">  -100</i>
    <i type="int" name="LMAXMIX">     2</i>
    <i type="logical" name="NLSPLINE"> F  </i>
   </separator>
   <separator name="electronic startup" >
    <i type="int" name="ISTART">     1</i>
    <i type="int" name="ICHARG">    11</i>
    <i type="int" name="INIWAV">     1</i>
   </separator>
   <separator name="electronic spin" >
    <i type="int" name="ISPIN">     1</i>
    <i type="logical" name="LNONCOLLINEAR"> F  </i>
    <v name="MAGMOM">      1.00000000      1.00000000      1.00000000      1.00000000      1.00000000      1.00000000      1.00000000      1.00000000      1.00000000      1.00000000      1.00000000      1.00000000      1.00000000      1.00000000      1.00000000      1.00000000      1.00000000      1.00000000      1.00000000      1.00000000
      1.00000000      1.00000000      1.00000000      1.00000000      1.00000000      1.00000000      1.00000000      1.00000000      1.00000000      1.00000000      1.00000000      1.00000000      1.00000000      1.00000000      1.00000000      1.00000000      1.00000000      1.00000000      1.00000000      1.00000000
      1.00000000      1.00000000      1.00000000      1.00000000      1.00000000      1.00000000      1.00000000      1.00000000      1.00000000      1.00000000      1.00000000      1.00000000      1.00000000      1.00000000      1.00000000      1.00000000      1.00000000      1.00000000      1.00000000      1.00000000
      1.00000000      1.00000000      1.00000000      1.00000000      1.00000000      1.00000000      1.00000000      1.00000000      1.00000000      1.00000000      1.00000000      1.00000000      1.00000000      1.00000000      1.00000000      1.00000000      1.00000000      1.00000000      1.00000000      1.00000000
      1.00000000      1.00000000      1.00000000      1.00000000</v>
    <i name="NUPDOWN">     -1.00000000</i>
    <i type="logical" name="LSORBIT"> F  </i>
    <v name="SAXIS">      0.00000000      0.00000000      1.00000000</v>
    <i type="logical" name="LSPIRAL"> F  </i>
    <v name="QSPIRAL">      0.00000000      0.00000000      0.00000000</v>
    <i type="logical" name="LZEROZ"> F  </i>
   </separator>
   <separator name="electronic exchange-correlation" >
    <i type="logical" name="LASPH"> F  </i>
    <i type="logical" name="LMETAGGA"> F  </i>
   </separator>
   <separator name="electronic convergence" >
    <i type="int" name="NELM">   200</i>
    <i type="int" name="NELMDL">     0</i>
    <i type="int" name="NELMIN">     2</i>
    <i name="ENINI">    500.00000000</i>
    <separator name="electronic convergence detail" >
     <i type="logical" name="LDIAG"> T  </i>
     <i type="logical" name="LSUBROT"> F  </i>
     <i name="WEIMIN">      0.00000000</i>
     <i name="EBREAK">      0.00000001</i>
     <i name="DEPER">      0.30000000</i>
     <i type="int" name="NRMM">     4</i>
     <i name="TIME">      0.40000000</i>
    </separator>
   </separator>
   <separator name="electronic mixer" >
    <i name="AMIX">      0.40000000</i>
    <i name="BMIX">      1.00000000</i>
    <i name="AMIN">      0.10000000</i>
    <i name="AMIX_MAG">      1.60000000</i>
    <i name="BMIX_MAG">      1.00000000</i>
    <separator name="electronic mixer details" >
     <i type="int" name="IMIX">     4</i>
     <i type="logical" name="MIXFIRST"> F  </i>
     <i type="int" name="MAXMIX">   -45</i>
     <i name="WC">    100.00000000</i>
     <i type="int" name="INIMIX">     1</i>
     <i type="int" name="MIXPRE">     1</i>
     <i type="int" name="MREMOVE">     5</i>
    </separator>
   </separator>
   <separator name="electronic dipolcorrection" >
    <i type="logical" name="LDIPOL"> F  </i>
    <i type="logical" name="LMONO"> F  </i>
    <i type="int" name="IDIPOL">     0</i>
    <i name="EPSILON">      1.00000000</i>
    <v name="DIPOL">   -100.00000000   -100.00000000   -100.00000000</v>
    <i name="EFIELD">      0.00000000</i>
   </separator>
  </separator>
  <separator name="grids" >
   <i type="int" name="NGX">   162</i>
   <i type="int" name="NGY">   162</i>
   <i type="int" name="NGZ">   150</i>
   <i type="int" name="NGXF">   250</i>
   <i type="int" name="NGYF">   250</i>
   <i type="int" name="NGZF">   224</i>
   <i type="logical" name="ADDGRID"> F  </i>
  </separator>
  <separator name="ionic" >
   <i type="int" name="NSW">     0</i>
   <i type="int" name="IBRION">    -1</i>
   <i type="int" name="MDALGO">     0</i>
   <i type="int" name="ISIF">     2</i>
   <i name="PSTRESS">      0.00000000</i>
   <i name="EDIFFG">     -0.01000000</i>
   <i type="int" name="NFREE">     0</i>
   <i name="POTIM">      0.30000000</i>
   <i name="SMASS">     -3.00000000</i>
   <i name="SCALEE">      1.00000000</i>
  </separator>
  <separator name="ionic md" >
   <i name="TEBEG">      0.00010000</i>
   <i name="TEEND">      0.00010000</i>
   <i type="int" name="NBLOCK">     1</i>
   <i type="int" name="KBLOCK">     1</i>
   <i type="int" name="NPACO">   256</i>
   <i name="APACO">     16.00000000</i>
  </separator>
  <separator name="symmetry" >
   <i type="int" name="ISYM">     2</i>
   <i name="SYMPREC">      0.00001000</i>
  </separator>
  <separator name="dos" >
   <i type="int" name="LORBIT">     0</i>
   <v name="RWIGS">     -1.00000000     -1.00000000     -1.00000000     -1.00000000</v>
   <i type="int" name="NEDOS">   301</i>
   <i name="EMIN">     10.00000000</i>
   <i name="EMAX">    -10.00000000</i>
   <i name="EFERMI">      0.00000000</i>
  </separator>
  <separator name="writing" >
   <i type="int" name="NWRITE">     0</i>
   <i type="logical" name="LWAVE"> F  </i>
   <i type="logical" name="LDOWNSAMPLE"> F  </i>
   <i type="logical" name="LCHARG"> F  </i>
   <i type="logical" name="LPARD"> F  </i>
   <i type="logical" name="LVTOT"> F  </i>
   <i type="logical" name="LVHAR"> F  </i>
   <i type="logical" name="LELF"> F  </i>
   <i type="logical" name="LOPTICS"> F  </i>
   <v name="STM">      0.00000000      0.00000000      0.00000000      0.00000000      0.00000000      0.00000000      0.00000000</v>
  </separator>
  <separator name="performance" >
   <i type="int" name="NPAR">    16</i>
   <i type="int" name="NSIM">     4</i>
   <i type="int" name="NBLK">    -1</i>
   <i type="logical" name="LPLANE"> T  </i>
   <i type="logical" name="LSCALAPACK"> T  </i>
   <i type="logical" name="LSCAAWARE"> F  </i>
   <i type="logical" name="LSCALU"> F  </i>
   <i type="logical" name="LASYNC"> F  </i>
   <i type="logical" name="LORBITALREAL"> F  </i>
  </separator>
  <separator name="miscellaneous" >
   <i type="int" name="IDIOT">     3</i>
   <i type="int" name="ISPECIAL">     0</i>
   <i type="logical" name="LMUSIC"> F  </i>
   <v name="POMASS">     14.00100000     12.01100000     16.00000000      1.00000000</v>
   <v name="DARWINR">      0.00000000      0.00000000      0.00000000      0.00000000</v>
   <v name="DARWINV">      1.00000000      1.00000000      1.00000000      1.00000000</v>
   <i type="logical" name="LCORR"> T  </i>
  </separator>
  <i type="logical" name="GGA_COMPAT"> T  </i>
  <i type="logical" name="LBERRY"> F  </i>
  <i type="int" name="ICORELEVEL">     0</i>
  <i type="logical" name="LDAU"> F  </i>
  <i type="int" name="I_CONSTRAINED_M">     0</i>
  <separator name="electronic exchange-correlation" >
   <i type="string" name="GGA">PE</i>
   <i type="int" name="VOSKOWN">     0</i>
   <i type="logical" name="LHFCALC"> F  </i>
   <i type="string" name="PRECFOCK"></i>
   <i type="logical" name="LSYMGRAD"> F  </i>
   <i type="logical" name="LHFONE"> F  </i>
   <i type="logical" name="LRHFCALC"> F  </i>
   <i type="logical" name="LTHOMAS"> F  </i>
   <i type="logical" name="LMODELHF"> F  </i>
   <i name="ENCUT4O">     -1.00000000</i>
   <i type="int" name="EXXOEP">     0</i>
   <i type="int" name="FOURORBIT">     0</i>
   <i name="AEXX">      0.00000000</i>
   <i name="HFALPHA">      0.00000000</i>
   <i name="MCALPHA">      0.00000000</i>
   <i name="ALDAX">      1.00000000</i>
   <i name="AGGAX">      1.00000000</i>
   <i name="ALDAC">      1.00000000</i>
   <i name="AGGAC">      1.00000000</i>
   <i type="int" name="NKREDX">     1</i>
   <i type="int" name="NKREDY">     1</i>
   <i type="int" name="NKREDZ">     1</i>
   <i type="logical" name="SHIFTRED"> F  </i>
   <i type="logical" name="ODDONLY"> F  </i>
   <i type="logical" name="EVENONLY"> F  </i>
   <i type="int" name="LMAXFOCK">     0</i>
   <i type="int" name="NMAXFOCKAE">     0</i>
   <i type="logical" name="LFOCKAEDFT"> F  </i>
   <i name="HFSCREEN">      0.00000000</i>
   <i name="HFSCREENC">      0.00000000</i>
   <i type="int" name="NBANDSGWLOW">     0</i>
  </separator>
  <separator name="vdW DFT" >
   <i type="logical" name="LUSE_VDW"> F  </i>
   <i name="Zab_VDW">     -0.84910000</i>
   <i name="PARAM1">      0.12340000</i>
   <i name="PARAM2">      1.00000000</i>
   <i name="PARAM3">      0.00000000</i>
  </separator>
  <separator name="model GW" >
   <i type="int" name="MODEL_GW">     0</i>
   <i name="MODEL_EPS0">     60.01910944</i>
   <i name="MODEL_ALPHA">      1.00000000</i>
  </separator>
  <separator name="linear response parameters" >
   <i type="logical" name="LEPSILON"> F  </i>
   <i type="logical" name="LRPA"> F  </i>
   <i type="logical" name="LNABLA"> F  </i>
   <i type="logical" name="LVEL"> F  </i>
   <i type="int" name="KINTER">     0</i>
   <i name="CSHIFT">      0.10000000</i>
   <i name="OMEGAMAX">     -1.00000000</i>
   <i name="DEG_THRESHOLD">      0.00200000</i>
   <i name="RTIME">     -0.10000000</i>
   <i name="WPLASMAI">      0.00000000</i>
   <v name="DFIELD">      0.00000000      0.00000000      0.00000000</v>
   <v name="WPLASMA">      0.00000000      0.00000000      0.00000000      0.00000000      0.00000000      0.00000000      0.00000000      0.00000000      0.00000000</v>
  </separator>
  <separator name="orbital magnetization" >
   <i type="logical" name="NUCIND"> F  </i>
   <v name="MAGPOS">      0.00000000      0.00000000      0.00000000</v>
   <i type="logical" name="LNICSALL"> T  </i>
   <i type="logical" name="ORBITALMAG"> F  </i>
   <i type="logical" name="LMAGBLOCH"> F  </i>
   <i type="logical" name="LCHIMAG"> F  </i>
   <i type="logical" name="LGAUGE"> T  </i>
   <i type="int" name="MAGATOM">     0</i>
   <v name="MAGDIPOL">      0.00000000      0.00000000      0.00000000</v>
   <v name="AVECCONST">      0.00000000      0.00000000      0.00000000</v>
  </separator>
  <separator name="response functions" >
   <i type="logical" name="LADDER"> F  </i>
   <i type="logical" name="LRPAFORCE"> F  </i>
   <i type="logical" name="LFXC"> F  </i>
   <i type="logical" name="LHARTREE"> T  </i>
   <i type="int" name="IBSE">     0</i>
   <v type="int" name="KPOINT">    -1     0     0     0</v>
   <i type="logical" name="LTCTE"> F  </i>
   <i type="logical" name="LTETE"> F  </i>
   <i type="logical" name="LTRIPLET"> F  </i>
   <i type="logical" name="LFXCEPS"> F  </i>
   <i type="logical" name="LFXHEG"> F  </i>
   <i type="int" name="NATURALO">     2</i>
   <i type="logical" name="L2ORDER"> F  </i>
   <i type="logical" name="LMP2LT"> F  </i>
   <i type="logical" name="LUSEW"> F  </i>
   <i name="ENCUTGW">     -2.00000000</i>
   <i name="ENCUTGWSOFT">     -2.00000000</i>
   <i name="ENCUTLF">     -1.00000000</i>
   <i type="int" name="LMAXMP2">    -1</i>
   <i name="SCISSOR">      0.00000000</i>
   <i type="int" name="NOMEGA">     0</i>
   <i type="int" name="NOMEGAR">     0</i>
   <i type="int" name="NBANDSGW">    -1</i>
   <i type="int" name="NBANDSO">    -1</i>
   <i type="int" name="NBANDSV">    -1</i>
   <i type="int" name="NELM">   200</i>
   <i type="int" name="NELMHF">     1</i>
   <i type="int" name="DIM">     3</i>
   <i type="int" name="ANTIRES">     0</i>
   <i name="OMEGAMAX">    -30.00000000</i>
   <i name="OMEGAMIN">    -30.00000000</i>
   <i name="OMEGATL">   -200.00000000</i>
   <i type="int" name="OMEGAGRID">   140</i>
   <i name="CSHIFT">     -0.10000000</i>
   <i type="logical" name="SELFENERGY"> F  </i>
   <i type="logical" name="LSPECTRAL"> F  </i>
   <i type="logical" name="LSPECTRALGW"> F  </i>
   <i type="logical" name="LSINGLES"> F  </i>
   <i type="logical" name="LFERMIGW"> F  </i>
   <i type="logical" name="ODDONLYGW"> F  </i>
   <i type="logical" name="EVENONLYGW"> F  </i>
   <i type="int" name="NKREDLFX">     1</i>
   <i type="int" name="NKREDLFY">     1</i>
   <i type="int" name="NKREDLFZ">     1</i>
   <i type="int" name="MAXMEM">  2800</i>
   <i type="int" name="TELESCOPE">     0</i>
   <i type="int" name="TAUPAR">     1</i>
   <i type="int" name="OMEGAPAR">    -1</i>
   <i name="LAMBDA">      1.00000000</i>
  </separator>
  <separator name="External order field" >
   <i name="OFIELD_KAPPA">      0.00000000</i>
   <v name="OFIELD_K">      0.00000000      0.00000000      0.00000000</v>
   <i name="OFIELD_Q6_NEAR">      0.00000000</i>
   <i name="OFIELD_Q6_FAR">      0.00000000</i>
   <i name="OFIELD_A">      0.00000000</i>
  </separator>
  <separator name="solvation model" >
   <i type="logical" name="LSOL"> F  </i>
  </separator>
 </parameters>
 <atominfo>
  <atoms>      84 </atoms>
  <types>       4 </types>
  <array name="atoms" >
   <dimension dim="1">ion</dimension>
   <field type="string">element</field>
   <field type="int">atomtype</field>
   <set>
    <rc><c>N </c><c>   1</c></rc>
    <rc><c>N </c><c>   1</c></rc>
    <rc><c>N </c><c>   1</c></rc>
    <rc><c>N </c><c>   1</c></rc>
    <rc><c>N </c><c>   1</c></rc>
    <rc><c>N </c><c>   1</c></rc>
    <rc><c>N </c><c>   1</c></rc>
    <rc><c>N </c><c>   1</c></rc>
    <rc><c>N </c><c>   1</c></rc>
    <rc><c>N </c><c>   1</c></rc>
    <rc><c>N </c><c>   1</c></rc>
    <rc><c>N </c><c>   1</c></rc>
    <rc><c>C </c><c>   2</c></rc>
    <rc><c>C </c><c>   2</c></rc>
    <rc><c>C </c><c>   2</c></rc>
    <rc><c>C </c><c>   2</c></rc>
    <rc><c>C </c><c>   2</c></rc>
    <rc><c>C </c><c>   2</c></rc>
    <rc><c>C </c><c>   2</c></rc>
    <rc><c>C </c><c>   2</c></rc>
    <rc><c>C </c><c>   2</c></rc>
    <rc><c>C </c><c>   2</c></rc>
    <rc><c>C </c><c>   2</c></rc>
    <rc><c>C </c><c>   2</c></rc>
    <rc><c>C </c><c>   2</c></rc>
    <rc><c>C </c><c>   2</c></rc>
    <rc><c>C </c><c>   2</c></rc>
    <rc><c>C </c><c>   2</c></rc>
    <rc><c>C </c><c>   2</c></rc>
    <rc><c>C </c><c>   2</c></rc>
    <rc><c>C </c><c>   2</c></rc>
    <rc><c>C </c><c>   2</c></rc>
    <rc><c>C </c><c>   2</c></rc>
    <rc><c>C </c><c>   2</c></rc>
    <rc><c>C </c><c>   2</c></rc>
    <rc><c>C </c><c>   2</c></rc>
    <rc><c>C </c><c>   2</c></rc>
    <rc><c>C </c><c>   2</c></rc>
    <rc><c>C </c><c>   2</c></rc>
    <rc><c>C </c><c>   2</c></rc>
    <rc><c>C </c><c>   2</c></rc>
    <rc><c>C </c><c>   2</c></rc>
    <rc><c>C </c><c>   2</c></rc>
    <rc><c>C </c><c>   2</c></rc>
    <rc><c>C </c><c>   2</c></rc>
    <rc><c>C </c><c>   2</c></rc>
    <rc><c>C </c><c>   2</c></rc>
    <rc><c>C </c><c>   2</c></rc>
    <rc><c>C </c><c>   2</c></rc>
    <rc><c>C </c><c>   2</c></rc>
    <rc><c>C </c><c>   2</c></rc>
    <rc><c>C </c><c>   2</c></rc>
    <rc><c>C </c><c>   2</c></rc>
    <rc><c>C </c><c>   2</c></rc>
    <rc><c>O </c><c>   3</c></rc>
    <rc><c>O </c><c>   3</c></rc>
    <rc><c>O </c><c>   3</c></rc>
    <rc><c>O </c><c>   3</c></rc>
    <rc><c>O </c><c>   3</c></rc>
    <rc><c>O </c><c>   3</c></rc>
    <rc><c>O </c><c>   3</c></rc>
    <rc><c>O </c><c>   3</c></rc>
    <rc><c>O </c><c>   3</c></rc>
    <rc><c>O </c><c>   3</c></rc>
    <rc><c>O </c><c>   3</c></rc>
    <rc><c>O </c><c>   3</c></rc>
    <rc><c>H </c><c>   4</c></rc>
    <rc><c>H </c><c>   4</c></rc>
    <rc><c>H </c><c>   4</c></rc>
    <rc><c>H </c><c>   4</c></rc>
    <rc><c>H </c><c>   4</c></rc>
    <rc><c>H </c><c>   4</c></rc>
    <rc><c>H </c><c>   4</c></rc>
    <rc><c>H </c><c>   4</c></rc>
    <rc><c>H </c><c>   4</c></rc>
    <rc><c>H </c><c>   4</c></rc>
    <rc><c>H </c><c>   4</c></rc>
    <rc><c>H </c><c>   4</c></rc>
    <rc><c>H </c><c>   4</c></rc>
    <rc><c>H </c><c>   4</c></rc>
    <rc><c>H </c><c>   4</c></rc>
    <rc><c>H </c><c>   4</c></rc>
    <rc><c>H </c><c>   4</c></rc>
    <rc><c>H </c><c>   4</c></rc>
   </set>
  </array>
  <array name="atomtypes" >
   <dimension dim="1">type</dimension>
   <field type="int">atomspertype</field>
   <field type="string">element</field>
   <field>mass</field>
   <field>valence</field>
   <field type="string">pseudopotential</field>
   <set>
    <rc><c>  12</c><c>N </c><c>     14.00100000</c><c>      5.00000000</c><c>  PAW_PBE N 08Apr2002                   </c></rc>
    <rc><c>  42</c><c>C </c><c>     12.01100000</c><c>      4.00000000</c><c>  PAW_PBE C 08Apr2002                   </c></rc>
    <rc><c>  12</c><c>O </c><c>     16.00000000</c><c>      6.00000000</c><c>  PAW_PBE O 08Apr2002                   </c></rc>
    <rc><c>  18</c><c>H </c><c>      1.00000000</c><c>      1.00000000</c><c>  PAW_PBE H 15Jun2001                   </c></rc>
   </set>
  </array>
 </atominfo>
 <structure name="initialpos" >
  <crystal>
   <varray name="basis" >
    <v>      22.02563701      -0.00000002       0.00000000 </v>
    <v>     -11.01281849      19.07476120       0.00000000 </v>
    <v>       0.00000000       0.00000000      20.00000000 </v>
   </varray>
   <i name="volume">   8402.67532097 </i>
   <varray name="rec_basis" >
    <v>       0.04540164       0.02621265       0.00000000 </v>
    <v>       0.00000000       0.05242530       0.00000000 </v>
    <v>       0.00000000       0.00000000       0.05000000 </v>
   </varray>
  </crystal>
  <varray name="positions" >
   <v>       0.38011240       0.19677006       0.36643682 </v>
   <v>       0.62754300       0.26115082       0.49872776 </v>
   <v>       0.63360782       0.37245700       0.49872776 </v>
   <v>       0.73884918       0.36639218       0.49872776 </v>
   <v>       0.03274149       0.07195126       0.49861605 </v>
   <v>       0.03920977       0.96725851       0.49861605 </v>
   <v>       0.92804874       0.96079023       0.49861605 </v>
   <v>       0.81665766       0.61988760       0.36643682 </v>
   <v>       0.80322994       0.18334234       0.36643682 </v>
   <v>       0.98594520       0.71640198       0.49347582 </v>
   <v>       0.73045678       0.01405480       0.49347582 </v>
   <v>       0.28359802       0.26954322       0.49347582 </v>
   <v>       0.37234257       0.20036596       0.49133528 </v>
   <v>       0.41307370       0.21424555       0.43329913 </v>
   <v>       0.48589810       0.24622655       0.43556780 </v>
   <v>       0.52021210       0.26627098       0.49694236 </v>
   <v>       0.48090122       0.25249094       0.55566909 </v>
   <v>       0.40803240       0.21915036       0.55264093 </v>
   <v>       0.59826160       0.30199884       0.49868216 </v>
   <v>       0.69800116       0.29626276       0.49868216 </v>
   <v>       0.70373724       0.40173840       0.49868216 </v>
   <v>       0.96261197       0.03128335       0.49859104 </v>
   <v>       0.06867138       0.03738803       0.49859104 </v>
   <v>       0.96871665       0.93132862       0.49859104 </v>
   <v>       0.93346730       0.85388750       0.49790335 </v>
   <v>       0.86003690       0.81275241       0.49664518 </v>
   <v>       0.82774308       0.74005858       0.49419640 </v>
   <v>       0.86695989       0.70574464       0.49192077 </v>
   <v>       0.82802339       0.62765743       0.49133528 </v>
   <v>       0.80117185       0.58692630       0.43329913 </v>
   <v>       0.76032845       0.51410190       0.43556780 </v>
   <v>       0.74605887       0.47978790       0.49694236 </v>
   <v>       0.92042020       0.06653270       0.49790335 </v>
   <v>       0.95271551       0.13996310       0.49664518 </v>
   <v>       0.91231550       0.17225692       0.49419640 </v>
   <v>       0.83878475       0.13304011       0.49192077 </v>
   <v>       0.79963404       0.17197661       0.49133528 </v>
   <v>       0.78575445       0.19882815       0.43329913 </v>
   <v>       0.75377345       0.23967155       0.43556780 </v>
   <v>       0.73372902       0.25394113       0.49694236 </v>
   <v>       0.14611250       0.07957980       0.49790335 </v>
   <v>       0.18724759       0.04728449       0.49664518 </v>
   <v>       0.25994142       0.08768450       0.49419640 </v>
   <v>       0.29425536       0.16121525       0.49192077 </v>
   <v>       0.94035778       0.74793330       0.49509536 </v>
   <v>       0.97339430       0.82061331       0.49790105 </v>
   <v>       0.77158972       0.51909878       0.55566909 </v>
   <v>       0.81111795       0.59196760       0.55264093 </v>
   <v>       0.80757552       0.05964222       0.49509536 </v>
   <v>       0.84721901       0.02660570       0.49790105 </v>
   <v>       0.74750906       0.22841028       0.55566909 </v>
   <v>       0.78084964       0.18888205       0.55264093 </v>
   <v>       0.25206670       0.19242448       0.49509536 </v>
   <v>       0.17938669       0.15278099       0.49790105 </v>
   <v>       0.41637948       0.19752391       0.31871445 </v>
   <v>       0.31821224       0.18272299       0.36201326 </v>
   <v>       0.70593392       0.95122510       0.50741685 </v>
   <v>       0.78114443       0.58362052       0.31871445 </v>
   <v>       0.86451075       0.68178776       0.36201326 </v>
   <v>       0.80247609       0.21885557       0.31871445 </v>
   <v>       0.81727701       0.13548925       0.36201326 </v>
   <v>       0.95866491       0.65354132       0.47817586 </v>
   <v>       0.04877490       0.75470882       0.50741685 </v>
   <v>       0.69487642       0.04133509       0.47817586 </v>
   <v>       0.34645868       0.30512358       0.47817586 </v>
   <v>       0.24529118       0.29406608       0.50741685 </v>
   <v>       0.51454068       0.25541576       0.38882152 </v>
   <v>       0.50721786       0.26746874       0.60404148 </v>
   <v>       0.37765080       0.20776952       0.59862864 </v>
   <v>       0.74087508       0.48545932       0.38882152 </v>
   <v>       0.82881200       0.83854882       0.49729424 </v>
   <v>       0.77069151       0.70846847       0.49307910 </v>
   <v>       0.74458424       0.25912492       0.38882152 </v>
   <v>       0.00973681       0.17118800       0.49729424 </v>
   <v>       0.93777697       0.22930849       0.49307910 </v>
   <v>       0.16145118       0.99026319       0.49729424 </v>
   <v>       0.29153153       0.06222303       0.49307910 </v>
   <v>       0.03031951       0.85125663       0.49937793 </v>
   <v>       0.76025089       0.49278214       0.60404148 </v>
   <v>       0.83011872       0.62234920       0.59862864 </v>
   <v>       0.82093712       0.96968049       0.49937793 </v>
   <v>       0.73253126       0.23974911       0.60404148 </v>
   <v>       0.79223048       0.16988128       0.59862864 </v>
   <v>       0.14874337       0.17906288       0.49937793 </v>
  </varray>
 </structure>
 <calculation>
  <scstep>
   <time name="dav">  132.79  133.91</time>
   <time name="total">  132.94  134.08</time>
   <energy>
    <i name="alphaZ">     54.60633143 </i>
    <i name="ewald">  37584.79563096 </i>
    <i name="hartreedc"> -49766.74459288 </i>
    <i name="XCdc">   1205.91039597 </i>
    <i name="pawpsdc">  29658.10341208 </i>
    <i name="pawaedc"> -29726.51588557 </i>
    <i name="eentropy">     -0.00000000 </i>
    <i name="bandstr">  -4383.15171346 </i>
    <i name="atom">  14767.68485670 </i>
    <i name="e_fr_energy">   -605.31156478 </i>
    <i name="e_wo_entrp">   -605.31156478 </i>
    <i name="e_0_energy">   -605.31156478 </i>
   </energy>
  </scstep>
  <scstep>
   <time name="dav">  150.17  151.42</time>
   <time name="total">  150.18  151.43</time>
   <energy>
    <i name="e_fr_energy">   -606.12465705 </i>
    <i name="e_wo_entrp">   -606.12465705 </i>
    <i name="e_0_energy">   -606.12465705 </i>
   </energy>
  </scstep>
  <scstep>
   <time name="dav">  167.47  168.83</time>
   <time name="total">  167.48  168.85</time>
   <energy>
    <i name="e_fr_energy">   -606.14852322 </i>
    <i name="e_wo_entrp">   -606.14852322 </i>
    <i name="e_0_energy">   -606.14852322 </i>
   </energy>
  </scstep>
  <scstep>
   <time name="dav">  151.18  152.43</time>
   <time name="total">  151.19  152.44</time>
   <energy>
    <i name="e_fr_energy">   -606.14895924 </i>
    <i name="e_wo_entrp">   -606.14895924 </i>
    <i name="e_0_energy">   -606.14895924 </i>
   </energy>
  </scstep>
  <scstep>
   <time name="dav">  141.68  142.83</time>
   <time name="total">  141.68  142.83</time>
   <energy>
    <i name="e_fr_energy">   -606.14898020 </i>
    <i name="e_wo_entrp">   -606.14898020 </i>
    <i name="e_0_energy">   -606.14898020 </i>
   </energy>
  </scstep>
  <scstep>
   <time name="dav">  117.45  118.40</time>
   <time name="total">  117.46  118.40</time>
   <energy>
    <i name="alphaZ">     54.60633143 </i>
    <i name="ewald">  37584.79563096 </i>
    <i name="hartreedc"> -49766.74459288 </i>
    <i name="XCdc">   1205.91039597 </i>
    <i name="pawpsdc">  29658.10341208 </i>
    <i name="pawaedc"> -29726.51588557 </i>
    <i name="eentropy">     -0.00000000 </i>
    <i name="bandstr">  -4383.98912994 </i>
    <i name="atom">  14767.68485670 </i>
    <i name="e_fr_energy">   -606.14898126 </i>
    <i name="e_wo_entrp">   -606.14898126 </i>
    <i name="e_0_energy">   -606.14898126 </i>
   </energy>
  </scstep>
  <structure>
   <crystal>
    <varray name="basis" >
     <v>      22.02563701      -0.00000002       0.00000000 </v>
     <v>     -11.01281849      19.07476120       0.00000000 </v>
     <v>       0.00000000       0.00000000      20.00000000 </v>
    </varray>
    <i name="volume">   8402.67532097 </i>
    <varray name="rec_basis" >
     <v>       0.04540164       0.02621265       0.00000000 </v>
     <v>       0.00000000       0.05242530       0.00000000 </v>
     <v>       0.00000000       0.00000000       0.05000000 </v>
    </varray>
   </crystal>
   <varray name="positions" >
    <v>       0.38011240       0.19677006       0.36643682 </v>
    <v>       0.62754300       0.26115082       0.49872776 </v>
    <v>       0.63360782       0.37245700       0.49872776 </v>
    <v>       0.73884918       0.36639218       0.49872776 </v>
    <v>       0.03274149       0.07195126       0.49861605 </v>
    <v>       0.03920977       0.96725851       0.49861605 </v>
    <v>       0.92804874       0.96079023       0.49861605 </v>
    <v>       0.81665766       0.61988760       0.36643682 </v>
    <v>       0.80322994       0.18334234       0.36643682 </v>
    <v>       0.98594520       0.71640198       0.49347582 </v>
    <v>       0.73045678       0.01405480       0.49347582 </v>
    <v>       0.28359802       0.26954322       0.49347582 </v>
    <v>       0.37234257       0.20036596       0.49133528 </v>
    <v>       0.41307370       0.21424555       0.43329913 </v>
    <v>       0.48589810       0.24622655       0.43556780 </v>
    <v>       0.52021210       0.26627098       0.49694236 </v>
    <v>       0.48090122       0.25249094       0.55566909 </v>
    <v>       0.40803240       0.21915036       0.55264093 </v>
    <v>       0.59826160       0.30199884       0.49868216 </v>
    <v>       0.69800116       0.29626276       0.49868216 </v>
    <v>       0.70373724       0.40173840       0.49868216 </v>
    <v>       0.96261197       0.03128335       0.49859104 </v>
    <v>       0.06867138       0.03738803       0.49859104 </v>
    <v>       0.96871665       0.93132862       0.49859104 </v>
    <v>       0.93346730       0.85388750       0.49790335 </v>
    <v>       0.86003690       0.81275241       0.49664518 </v>
    <v>       0.82774308       0.74005858       0.49419640 </v>
    <v>       0.86695989       0.70574464       0.49192077 </v>
    <v>       0.82802339       0.62765743       0.49133528 </v>
    <v>       0.80117185       0.58692630       0.43329913 </v>
    <v>       0.76032845       0.51410190       0.43556780 </v>
    <v>       0.74605887       0.47978790       0.49694236 </v>
    <v>       0.92042020       0.06653270       0.49790335 </v>
    <v>       0.95271551       0.13996310       0.49664518 </v>
    <v>       0.91231550       0.17225692       0.49419640 </v>
    <v>       0.83878475       0.13304011       0.49192077 </v>
    <v>       0.79963404       0.17197661       0.49133528 </v>
    <v>       0.78575445       0.19882815       0.43329913 </v>
    <v>       0.75377345       0.23967155       0.43556780 </v>
    <v>       0.73372902       0.25394113       0.49694236 </v>
    <v>       0.14611250       0.07957980       0.49790335 </v>
    <v>       0.18724759       0.04728449       0.49664518 </v>
    <v>       0.25994142       0.08768450       0.49419640 </v>
    <v>       0.29425536       0.16121525       0.49192077 </v>
    <v>       0.94035778       0.74793330       0.49509536 </v>
    <v>       0.97339430       0.82061331       0.49790105 </v>
    <v>       0.77158972       0.51909878       0.55566909 </v>
    <v>       0.81111795       0.59196760       0.55264093 </v>
    <v>       0.80757552       0.05964222       0.49509536 </v>
    <v>       0.84721901       0.02660570       0.49790105 </v>
    <v>       0.74750906       0.22841028       0.55566909 </v>
    <v>       0.78084964       0.18888205       0.55264093 </v>
    <v>       0.25206670       0.19242448       0.49509536 </v>
    <v>       0.17938669       0.15278099       0.49790105 </v>
    <v>       0.41637948       0.19752391       0.31871445 </v>
    <v>       0.31821224       0.18272299       0.36201326 </v>
    <v>       0.70593392       0.95122510       0.50741685 </v>
    <v>       0.78114443       0.58362052       0.31871445 </v>
    <v>       0.86451075       0.68178776       0.36201326 </v>
    <v>       0.80247609       0.21885557       0.31871445 </v>
    <v>       0.81727701       0.13548925       0.36201326 </v>
    <v>       0.95866491       0.65354132       0.47817586 </v>
    <v>       0.04877490       0.75470882       0.50741685 </v>
    <v>       0.69487642       0.04133509       0.47817586 </v>
    <v>       0.34645868       0.30512358       0.47817586 </v>
    <v>       0.24529118       0.29406608       0.50741685 </v>
    <v>       0.51454068       0.25541576       0.38882152 </v>
    <v>       0.50721786       0.26746874       0.60404148 </v>
    <v>       0.37765080       0.20776952       0.59862864 </v>
    <v>       0.74087508       0.48545932       0.38882152 </v>
    <v>       0.82881200       0.83854882       0.49729424 </v>
    <v>       0.77069151       0.70846847       0.49307910 </v>
    <v>       0.74458424       0.25912492       0.38882152 </v>
    <v>       0.00973681       0.17118800       0.49729424 </v>
    <v>       0.93777697       0.22930849       0.49307910 </v>
    <v>       0.16145118       0.99026319       0.49729424 </v>
    <v>       0.29153153       0.06222303       0.49307910 </v>
    <v>       0.03031951       0.85125663       0.49937793 </v>
    <v>       0.76025089       0.49278214       0.60404148 </v>
    <v>       0.83011872       0.62234920       0.59862864 </v>
    <v>       0.82093712       0.96968049       0.49937793 </v>
    <v>       0.73253126       0.23974911       0.60404148 </v>
    <v>       0.79223048       0.16988128       0.59862864 </v>
    <v>       0.14874337       0.17906288       0.49937793 </v>
   </varray>
  </structure>
  <varray name="forces" >
   <v>       0.00217902       0.00341509      -0.00326239 </v>
   <v>      -0.00086704       0.00104633       0.00018685 </v>
   <v>       0.00133966       0.00022772       0.00018685 </v>
   <v>      -0.00047262      -0.00127404       0.00018685 </v>
   <v>      -0.00003755       0.00069428      -0.00307030 </v>
   <v>       0.00062004      -0.00031462      -0.00307030 </v>
   <v>      -0.00058249      -0.00037966      -0.00307030 </v>
   <v>       0.00186805      -0.00359463      -0.00326239 </v>
   <v>      -0.00404706       0.00017954      -0.00326239 </v>
   <v>       0.00544101       0.00073440      -0.00319249 </v>
   <v>      -0.00208449      -0.00507925      -0.00319249 </v>
   <v>      -0.00335651       0.00434485      -0.00319249 </v>
   <v>      -0.00082482       0.00309370       0.00419080 </v>
   <v>       0.00228171      -0.00162727      -0.00226358 </v>
   <v>      -0.00205859       0.00173123      -0.00238444 </v>
   <v>      -0.00145948      -0.00022117       0.00331176 </v>
   <v>       0.00208814       0.00378751      -0.00250756 </v>
   <v>      -0.00424554       0.00098915       0.00090049 </v>
   <v>       0.00181023      -0.00182735       0.00109779 </v>
   <v>       0.00067741       0.00248138       0.00109779 </v>
   <v>      -0.00248765      -0.00065404       0.00109779 </v>
   <v>       0.00243554       0.00567144       0.00106539 </v>
   <v>       0.00369384      -0.00494496       0.00106539 </v>
   <v>      -0.00612938      -0.00072649       0.00106539 </v>
   <v>       0.00229394       0.00150967      -0.00140273 </v>
   <v>       0.00178062      -0.00120991      -0.00092912 </v>
   <v>      -0.00073449       0.00336513      -0.00026082 </v>
   <v>       0.00273773      -0.00114622       0.00058856 </v>
   <v>       0.00309163      -0.00083254       0.00419080 </v>
   <v>      -0.00255011      -0.00116239      -0.00226358 </v>
   <v>       0.00252858       0.00091717      -0.00238444 </v>
   <v>       0.00053820       0.00137453       0.00331176 </v>
   <v>       0.00016044      -0.00274144      -0.00140273 </v>
   <v>      -0.00193813      -0.00093711      -0.00092912 </v>
   <v>       0.00328153      -0.00104648      -0.00026082 </v>
   <v>      -0.00236152      -0.00179784       0.00058856 </v>
   <v>      -0.00226682      -0.00226116       0.00419080 </v>
   <v>       0.00026840       0.00278966      -0.00226358 </v>
   <v>      -0.00047000      -0.00264840      -0.00238444 </v>
   <v>       0.00092127      -0.00115336       0.00331176 </v>
   <v>      -0.00245438       0.00123177      -0.00140273 </v>
   <v>       0.00015750       0.00214702      -0.00092912 </v>
   <v>      -0.00254704      -0.00231865      -0.00026082 </v>
   <v>      -0.00037622       0.00294406       0.00058856 </v>
   <v>      -0.00044922      -0.00441345       0.00212936 </v>
   <v>      -0.00000358       0.00302976      -0.00054166 </v>
   <v>       0.00223601      -0.00370213      -0.00250756 </v>
   <v>       0.00297940       0.00318218       0.00090049 </v>
   <v>      -0.00359754       0.00259576       0.00212936 </v>
   <v>       0.00262564      -0.00151178      -0.00054166 </v>
   <v>      -0.00432415      -0.00008538      -0.00250756 </v>
   <v>       0.00126615      -0.00417132       0.00090049 </v>
   <v>       0.00404677       0.00181768       0.00212936 </v>
   <v>      -0.00262206      -0.00151798      -0.00054166 </v>
   <v>      -0.00009242      -0.00269208       0.00348351 </v>
   <v>      -0.00185771      -0.00103903       0.00086079 </v>
   <v>       0.00007712      -0.00220446       0.00303326 </v>
   <v>      -0.00228520       0.00142608       0.00348351 </v>
   <v>       0.00002903       0.00212834       0.00086079 </v>
   <v>       0.00237762       0.00126600       0.00348351 </v>
   <v>       0.00182868      -0.00108931       0.00086079 </v>
   <v>       0.00166634      -0.00400027      -0.00251220 </v>
   <v>       0.00187056       0.00116902       0.00303326 </v>
   <v>      -0.00429751       0.00055705      -0.00251220 </v>
   <v>       0.00263117       0.00344323      -0.00251220 </v>
   <v>      -0.00194768       0.00103544       0.00303326 </v>
   <v>       0.00105061      -0.00036914       0.00114841 </v>
   <v>      -0.00225587       0.00331751      -0.00119697 </v>
   <v>      -0.00355541       0.00356324       0.00171697 </v>
   <v>      -0.00084499      -0.00072529       0.00114841 </v>
   <v>       0.00058652      -0.00171245      -0.00099578 </v>
   <v>       0.00322392      -0.00125344       0.00017436 </v>
   <v>      -0.00020562       0.00109443       0.00114841 </v>
   <v>      -0.00177629       0.00034828      -0.00099578 </v>
   <v>      -0.00269748      -0.00216528       0.00017436 </v>
   <v>       0.00118977       0.00136417      -0.00099578 </v>
   <v>      -0.00052645       0.00341872       0.00017436 </v>
   <v>       0.00243359       0.00125088       0.00063173 </v>
   <v>       0.00400099       0.00029489      -0.00119697 </v>
   <v>       0.00486356       0.00129745       0.00171697 </v>
   <v>      -0.00013350      -0.00273298       0.00063173 </v>
   <v>      -0.00174511      -0.00361240      -0.00119697 </v>
   <v>      -0.00130815      -0.00486069       0.00171697 </v>
   <v>      -0.00230008       0.00148211       0.00063173 </v>
  </varray>
  <varray name="stress" >
   <v>       0.00218234       0.00000000       0.00000000 </v>
   <v>      -0.00000000       0.00218234       0.00000000 </v>
   <v>       0.00000000       0.00000000      -0.25319939 </v>
  </varray>
  <energy>
   <i name="e_fr_energy">   -608.10444733 </i>
   <i name="e_wo_entrp">   -608.10444733 </i>
   <i name="e_0_energy">     -0.00000000 </i>
  </energy>
  <time name="totalsc">  977.46  985.82</time>
  <eigenvalues>
   <array>
    <dimension dim="1">band</dimension>
    <dimension dim="2">kpoint</dimension>
    <dimension dim="3">spin</dimension>
    <field>eigene</field>
    <field>occ</field>
    <set>
     <set comment="spin 1">
      <set comment="kpoint 1">
       <r>  -30.5703    1.0000 </r>
       <r>  -30.5700    1.0000 </r>
       <r>  -30.5689    1.0000 </r>
       <r>  -30.5448    1.0000 </r>
       <r>  -30.5444    1.0000 </r>
       <r>  -30.5440    1.0000 </r>
       <r>  -26.1761    1.0000 </r>
       <r>  -26.1759    1.0000 </r>
       <r>  -26.1750    1.0000 </r>
       <r>  -26.1417    1.0000 </r>
       <r>  -26.1414    1.0000 </r>
       <r>  -26.1410    1.0000 </r>
       <r>  -26.0651    1.0000 </r>
       <r>  -25.7643    1.0000 </r>
       <r>  -23.1134    1.0000 </r>
       <r>  -23.1134    1.0000 </r>
       <r>  -22.8902    1.0000 </r>
       <r>  -22.8901    1.0000 </r>
       <r>  -22.5257    1.0000 </r>
       <r>  -22.4255    1.0000 </r>
       <r>  -22.4250    1.0000 </r>
       <r>  -21.9879    1.0000 </r>
       <r>  -21.9073    1.0000 </r>
       <r>  -21.9070    1.0000 </r>
       <r>  -20.2870    1.0000 </r>
       <r>  -20.2868    1.0000 </r>
       <r>  -20.1927    1.0000 </r>
       <r>  -20.0523    1.0000 </r>
       <r>  -20.0520    1.0000 </r>
       <r>  -20.0068    1.0000 </r>
       <r>  -19.8297    1.0000 </r>
       <r>  -19.8294    1.0000 </r>
       <r>  -19.8283    1.0000 </r>
       <r>  -19.1156    1.0000 </r>
       <r>  -19.1153    1.0000 </r>
       <r>  -18.8583    1.0000 </r>
       <r>  -17.7982    1.0000 </r>
       <r>  -17.7980    1.0000 </r>
       <r>  -17.5324    1.0000 </r>
       <r>  -17.4285    1.0000 </r>
       <r>  -17.4281    1.0000 </r>
       <r>  -17.3083    1.0000 </r>
       <r>  -17.3083    1.0000 </r>
       <r>  -17.1906    1.0000 </r>
       <r>  -16.6282    1.0000 </r>
       <r>  -16.6280    1.0000 </r>
       <r>  -16.4004    1.0000 </r>
       <r>  -15.4677    1.0000 </r>
       <r>  -15.3786    1.0000 </r>
       <r>  -15.3783    1.0000 </r>
       <r>  -15.2264    1.0000 </r>
       <r>  -15.2261    1.0000 </r>
       <r>  -15.1378    1.0000 </r>
       <r>  -14.9957    1.0000 </r>
       <r>  -14.5475    1.0000 </r>
       <r>  -14.5472    1.0000 </r>
       <r>  -14.2165    1.0000 </r>
       <r>  -14.2163    1.0000 </r>
       <r>  -14.1928    1.0000 </r>
       <r>  -13.8625    1.0000 </r>
       <r>  -13.7911    1.0000 </r>
       <r>  -13.6935    1.0000 </r>
       <r>  -13.6876    1.0000 </r>
       <r>  -13.6873    1.0000 </r>
       <r>  -13.1059    1.0000 </r>
       <r>  -13.1056    1.0000 </r>
       <r>  -12.9790    1.0000 </r>
       <r>  -12.9362    1.0000 </r>
       <r>  -12.9356    1.0000 </r>
       <r>  -12.9203    1.0000 </r>
       <r>  -12.9054    1.0000 </r>
       <r>  -12.9050    1.0000 </r>
       <r>  -12.6884    1.0000 </r>
       <r>  -12.6084    1.0000 </r>
       <r>  -12.5486    1.0000 </r>
       <r>  -12.5485    1.0000 </r>
       <r>  -12.4648    1.0000 </r>
       <r>  -12.4644    1.0000 </r>
       <r>  -12.4044    1.0000 </r>
       <r>  -12.3594    1.0000 </r>
       <r>  -12.3591    1.0000 </r>
       <r>  -12.3209    1.0000 </r>
       <r>  -12.2654    1.0000 </r>
       <r>  -11.9940    1.0000 </r>
       <r>  -11.8436    1.0000 </r>
       <r>  -11.8436    1.0000 </r>
       <r>  -11.7725    1.0000 </r>
       <r>  -11.7722    1.0000 </r>
       <r>  -11.6073    1.0000 </r>
       <r>  -11.5835    1.0000 </r>
       <r>  -11.5833    1.0000 </r>
       <r>  -11.3715    1.0000 </r>
       <r>  -11.1429    1.0000 </r>
       <r>  -11.1427    1.0000 </r>
       <r>  -11.0875    1.0000 </r>
       <r>  -10.9723    1.0000 </r>
       <r>  -10.9721    1.0000 </r>
       <r>  -10.9584    1.0000 </r>
       <r>  -10.8694    1.0000 </r>
       <r>  -10.6560    1.0000 </r>
       <r>  -10.6559    1.0000 </r>
       <r>  -10.4751    1.0000 </r>
       <r>   -9.9481    1.0000 </r>
       <r>   -9.9480    1.0000 </r>
       <r>   -9.7800    1.0000 </r>
       <r>   -9.7799    1.0000 </r>
       <r>   -9.5932    1.0000 </r>
       <r>   -9.5701    1.0000 </r>
       <r>   -9.5698    1.0000 </r>
       <r>   -9.4867    1.0000 </r>
       <r>   -9.3939    1.0000 </r>
       <r>   -9.3802    1.0000 </r>
       <r>   -9.3801    1.0000 </r>
       <r>   -9.2226    1.0000 </r>
       <r>   -9.1273    1.0000 </r>
       <r>   -9.1271    1.0000 </r>
       <r>   -9.1067    1.0000 </r>
       <r>   -8.9117    1.0000 </r>
       <r>   -8.8244    1.0000 </r>
       <r>   -8.8242    1.0000 </r>
       <r>   -8.8210    1.0000 </r>
       <r>   -8.5589    1.0000 </r>
       <r>   -8.5587    1.0000 </r>
       <r>   -8.3598    1.0000 </r>
       <r>   -8.3598    1.0000 </r>
       <r>   -7.4950    1.0000 </r>
       <r>   -7.4947    1.0000 </r>
       <r>   -7.4941    1.0000 </r>
       <r>   -7.4840    1.0000 </r>
       <r>   -7.4837    1.0000 </r>
       <r>   -7.4831    1.0000 </r>
       <r>   -7.3401    1.0000 </r>
       <r>   -7.3291    1.0000 </r>
       <r>   -7.3288    1.0000 </r>
       <r>   -7.1508    1.0000 </r>
       <r>   -7.1315    1.0000 </r>
       <r>   -7.1311    1.0000 </r>
       <r>   -7.0639    1.0000 </r>
       <r>   -7.0622    1.0000 </r>
       <r>   -7.0619    1.0000 </r>
       <r>   -6.9158    1.0000 </r>
       <r>   -6.9156    1.0000 </r>
       <r>   -6.9138    1.0000 </r>
       <r>   -6.7916    1.0000 </r>
       <r>   -6.7914    1.0000 </r>
       <r>   -6.7477    1.0000 </r>
       <r>   -6.7074    1.0000 </r>
       <r>   -6.6698    1.0000 </r>
       <r>   -6.6695    1.0000 </r>
       <r>   -6.4908    1.0000 </r>
       <r>   -6.4907    1.0000 </r>
       <r>   -6.3537    1.0000 </r>
       <r>   -6.3536    1.0000 </r>
       <r>   -6.2921    1.0000 </r>
       <r>   -6.2561    1.0000 </r>
       <r>   -6.2558    1.0000 </r>
       <r>   -6.2220    1.0000 </r>
       <r>   -6.1993    1.0000 </r>
       <r>   -6.1990    1.0000 </r>
       <r>   -3.3941    0.0000 </r>
       <r>   -3.3937    0.0000 </r>
       <r>   -3.3472    0.0000 </r>
       <r>   -3.3159    0.0000 </r>
       <r>   -3.3155    0.0000 </r>
       <r>   -3.2591    0.0000 </r>
       <r>   -3.0334    0.0000 </r>
       <r>   -3.0333    0.0000 </r>
       <r>   -2.7386    0.0000 </r>
       <r>   -2.7385    0.0000 </r>
       <r>   -2.0091    0.0000 </r>
       <r>   -1.8531    0.0000 </r>
       <r>   -1.8528    0.0000 </r>
       <r>   -1.7076    0.0000 </r>
       <r>   -1.4413    0.0000 </r>
       <r>   -1.4410    0.0000 </r>
       <r>   -1.3539    0.0000 </r>
       <r>   -1.0427    0.0000 </r>
       <r>   -1.0423    0.0000 </r>
       <r>   -0.9417    0.0000 </r>
       <r>   -0.4884    0.0000 </r>
       <r>   -0.4112    0.0000 </r>
       <r>   -0.4111    0.0000 </r>
       <r>   -0.2196    0.0000 </r>
       <r>   -0.0362    0.0000 </r>
       <r>   -0.0359    0.0000 </r>
       <r>    0.0953    0.0000 </r>
       <r>    0.1945    0.0000 </r>
       <r>    0.1947    0.0000 </r>
       <r>    0.2710    0.0000 </r>
       <r>    0.4841    0.0000 </r>
       <r>    0.5578    0.0000 </r>
       <r>    0.5582    0.0000 </r>
       <r>    0.6673    0.0000 </r>
       <r>    0.8142    0.0000 </r>
       <r>    0.8145    0.0000 </r>
       <r>    0.8280    0.0000 </r>
       <r>    0.8746    0.0000 </r>
       <r>    0.8750    0.0000 </r>
       <r>    0.9032    0.0000 </r>
       <r>    0.9704    0.0000 </r>
       <r>    1.0400    0.0000 </r>
       <r>    1.0403    0.0000 </r>
       <r>    1.0796    0.0000 </r>
       <r>    1.0905    0.0000 </r>
       <r>    1.0911    0.0000 </r>
       <r>    1.1092    0.0000 </r>
       <r>    1.1796    0.0000 </r>
       <r>    1.2277    0.0000 </r>
      </set>
      <set comment="kpoint 2">
       <r>  -30.5703    1.0000 </r>
       <r>  -30.5700    1.0000 </r>
       <r>  -30.5689    1.0000 </r>
       <r>  -30.5448    1.0000 </r>
       <r>  -30.5444    1.0000 </r>
       <r>  -30.5440    1.0000 </r>
       <r>  -26.1761    1.0000 </r>
       <r>  -26.1759    1.0000 </r>
       <r>  -26.1750    1.0000 </r>
       <r>  -26.1417    1.0000 </r>
       <r>  -26.1414    1.0000 </r>
       <r>  -26.1410    1.0000 </r>
       <r>  -26.0651    1.0000 </r>
       <r>  -25.7643    1.0000 </r>
       <r>  -23.1134    1.0000 </r>
       <r>  -23.1134    1.0000 </r>
       <r>  -22.8902    1.0000 </r>
       <r>  -22.8901    1.0000 </r>
       <r>  -22.5256    1.0000 </r>
       <r>  -22.4256    1.0000 </r>
       <r>  -22.4251    1.0000 </r>
       <r>  -21.9877    1.0000 </r>
       <r>  -21.9074    1.0000 </r>
       <r>  -21.9071    1.0000 </r>
       <r>  -20.2869    1.0000 </r>
       <r>  -20.2868    1.0000 </r>
       <r>  -20.1928    1.0000 </r>
       <r>  -20.0522    1.0000 </r>
       <r>  -20.0519    1.0000 </r>
       <r>  -20.0068    1.0000 </r>
       <r>  -19.8298    1.0000 </r>
       <r>  -19.8294    1.0000 </r>
       <r>  -19.8283    1.0000 </r>
       <r>  -19.1154    1.0000 </r>
       <r>  -19.1151    1.0000 </r>
       <r>  -18.8588    1.0000 </r>
       <r>  -17.7980    1.0000 </r>
       <r>  -17.7976    1.0000 </r>
       <r>  -17.5327    1.0000 </r>
       <r>  -17.4285    1.0000 </r>
       <r>  -17.4281    1.0000 </r>
       <r>  -17.3085    1.0000 </r>
       <r>  -17.3083    1.0000 </r>
       <r>  -17.1902    1.0000 </r>
       <r>  -16.6320    1.0000 </r>
       <r>  -16.6281    1.0000 </r>
       <r>  -16.3962    1.0000 </r>
       <r>  -15.4694    1.0000 </r>
       <r>  -15.3784    1.0000 </r>
       <r>  -15.3778    1.0000 </r>
       <r>  -15.2264    1.0000 </r>
       <r>  -15.2261    1.0000 </r>
       <r>  -15.1377    1.0000 </r>
       <r>  -14.9961    1.0000 </r>
       <r>  -14.5473    1.0000 </r>
       <r>  -14.5465    1.0000 </r>
       <r>  -14.2167    1.0000 </r>
       <r>  -14.2163    1.0000 </r>
       <r>  -14.1928    1.0000 </r>
       <r>  -13.8624    1.0000 </r>
       <r>  -13.7912    1.0000 </r>
       <r>  -13.6991    1.0000 </r>
       <r>  -13.6874    1.0000 </r>
       <r>  -13.6812    1.0000 </r>
       <r>  -13.1067    1.0000 </r>
       <r>  -13.1057    1.0000 </r>
       <r>  -12.9790    1.0000 </r>
       <r>  -12.9363    1.0000 </r>
       <r>  -12.9357    1.0000 </r>
       <r>  -12.9203    1.0000 </r>
       <r>  -12.9057    1.0000 </r>
       <r>  -12.9053    1.0000 </r>
       <r>  -12.6877    1.0000 </r>
       <r>  -12.6084    1.0000 </r>
       <r>  -12.5486    1.0000 </r>
       <r>  -12.5485    1.0000 </r>
       <r>  -12.4648    1.0000 </r>
       <r>  -12.4644    1.0000 </r>
       <r>  -12.4044    1.0000 </r>
       <r>  -12.3594    1.0000 </r>
       <r>  -12.3591    1.0000 </r>
       <r>  -12.3210    1.0000 </r>
       <r>  -12.2654    1.0000 </r>
       <r>  -11.9940    1.0000 </r>
       <r>  -11.8435    1.0000 </r>
       <r>  -11.8429    1.0000 </r>
       <r>  -11.7725    1.0000 </r>
       <r>  -11.7722    1.0000 </r>
       <r>  -11.6073    1.0000 </r>
       <r>  -11.5835    1.0000 </r>
       <r>  -11.5833    1.0000 </r>
       <r>  -11.3715    1.0000 </r>
       <r>  -11.1439    1.0000 </r>
       <r>  -11.1427    1.0000 </r>
       <r>  -11.0870    1.0000 </r>
       <r>  -10.9729    1.0000 </r>
       <r>  -10.9721    1.0000 </r>
       <r>  -10.9579    1.0000 </r>
       <r>  -10.8694    1.0000 </r>
       <r>  -10.6583    1.0000 </r>
       <r>  -10.6559    1.0000 </r>
       <r>  -10.4721    1.0000 </r>
       <r>   -9.9481    1.0000 </r>
       <r>   -9.9479    1.0000 </r>
       <r>   -9.7809    1.0000 </r>
       <r>   -9.7802    1.0000 </r>
       <r>   -9.5934    1.0000 </r>
       <r>   -9.5701    1.0000 </r>
       <r>   -9.5698    1.0000 </r>
       <r>   -9.4871    1.0000 </r>
       <r>   -9.3944    1.0000 </r>
       <r>   -9.3801    1.0000 </r>
       <r>   -9.3785    1.0000 </r>
       <r>   -9.2227    1.0000 </r>
       <r>   -9.1275    1.0000 </r>
       <r>   -9.1272    1.0000 </r>
       <r>   -9.1063    1.0000 </r>
       <r>   -8.9118    1.0000 </r>
       <r>   -8.8277    1.0000 </r>
       <r>   -8.8242    1.0000 </r>
       <r>   -8.8177    1.0000 </r>
       <r>   -8.5588    1.0000 </r>
       <r>   -8.5587    1.0000 </r>
       <r>   -8.3598    1.0000 </r>
       <r>   -8.3598    1.0000 </r>
       <r>   -7.4953    1.0000 </r>
       <r>   -7.4945    1.0000 </r>
       <r>   -7.4940    1.0000 </r>
       <r>   -7.4840    1.0000 </r>
       <r>   -7.4837    1.0000 </r>
       <r>   -7.4830    1.0000 </r>
       <r>   -7.3410    1.0000 </r>
       <r>   -7.3289    1.0000 </r>
       <r>   -7.3280    1.0000 </r>
       <r>   -7.1510    1.0000 </r>
       <r>   -7.1315    1.0000 </r>
       <r>   -7.1311    1.0000 </r>
       <r>   -7.0639    1.0000 </r>
       <r>   -7.0622    1.0000 </r>
       <r>   -7.0618    1.0000 </r>
       <r>   -6.9158    1.0000 </r>
       <r>   -6.9156    1.0000 </r>
       <r>   -6.9138    1.0000 </r>
       <r>   -6.7916    1.0000 </r>
       <r>   -6.7914    1.0000 </r>
       <r>   -6.7477    1.0000 </r>
       <r>   -6.7075    1.0000 </r>
       <r>   -6.6698    1.0000 </r>
       <r>   -6.6695    1.0000 </r>
       <r>   -6.4908    1.0000 </r>
       <r>   -6.4907    1.0000 </r>
       <r>   -6.3537    1.0000 </r>
       <r>   -6.3536    1.0000 </r>
       <r>   -6.2921    1.0000 </r>
       <r>   -6.2561    1.0000 </r>
       <r>   -6.2558    1.0000 </r>
       <r>   -6.2220    1.0000 </r>
       <r>   -6.1993    1.0000 </r>
       <r>   -6.1990    1.0000 </r>
       <r>   -3.3941    0.0000 </r>
       <r>   -3.3937    0.0000 </r>
       <r>   -3.3473    0.0000 </r>
       <r>   -3.3158    0.0000 </r>
       <r>   -3.3154    0.0000 </r>
       <r>   -3.2592    0.0000 </r>
       <r>   -3.0334    0.0000 </r>
       <r>   -3.0333    0.0000 </r>
       <r>   -2.7386    0.0000 </r>
       <r>   -2.7385    0.0000 </r>
       <r>   -2.0092    0.0000 </r>
       <r>   -1.8529    0.0000 </r>
       <r>   -1.8527    0.0000 </r>
       <r>   -1.7078    0.0000 </r>
       <r>   -1.4412    0.0000 </r>
       <r>   -1.4410    0.0000 </r>
       <r>   -1.3540    0.0000 </r>
       <r>   -1.0427    0.0000 </r>
       <r>   -1.0423    0.0000 </r>
       <r>   -0.9417    0.0000 </r>
       <r>   -0.4884    0.0000 </r>
       <r>   -0.4112    0.0000 </r>
       <r>   -0.4110    0.0000 </r>
       <r>   -0.2200    0.0000 </r>
       <r>   -0.0361    0.0000 </r>
       <r>   -0.0355    0.0000 </r>
       <r>    0.0954    0.0000 </r>
       <r>    0.1943    0.0000 </r>
       <r>    0.1949    0.0000 </r>
       <r>    0.2713    0.0000 </r>
       <r>    0.4832    0.0000 </r>
       <r>    0.5576    0.0000 </r>
       <r>    0.5591    0.0000 </r>
       <r>    0.6668    0.0000 </r>
       <r>    0.8129    0.0000 </r>
       <r>    0.8137    0.0000 </r>
       <r>    0.8278    0.0000 </r>
       <r>    0.8749    0.0000 </r>
       <r>    0.8765    0.0000 </r>
       <r>    0.9034    0.0000 </r>
       <r>    0.9691    0.0000 </r>
       <r>    1.0393    0.0000 </r>
       <r>    1.0406    0.0000 </r>
       <r>    1.0796    0.0000 </r>
       <r>    1.0908    0.0000 </r>
       <r>    1.0926    0.0000 </r>
       <r>    1.1105    0.0000 </r>
       <r>    1.1790    0.0000 </r>
       <r>    1.2239    0.0000 </r>
      </set>
      <set comment="kpoint 3">
       <r>  -30.5703    1.0000 </r>
       <r>  -30.5700    1.0000 </r>
       <r>  -30.5689    1.0000 </r>
       <r>  -30.5448    1.0000 </r>
       <r>  -30.5444    1.0000 </r>
       <r>  -30.5440    1.0000 </r>
       <r>  -26.1761    1.0000 </r>
       <r>  -26.1759    1.0000 </r>
       <r>  -26.1750    1.0000 </r>
       <r>  -26.1417    1.0000 </r>
       <r>  -26.1414    1.0000 </r>
       <r>  -26.1410    1.0000 </r>
       <r>  -26.0651    1.0000 </r>
       <r>  -25.7643    1.0000 </r>
       <r>  -23.1134    1.0000 </r>
       <r>  -23.1134    1.0000 </r>
       <r>  -22.8902    1.0000 </r>
       <r>  -22.8902    1.0000 </r>
       <r>  -22.5251    1.0000 </r>
       <r>  -22.4261    1.0000 </r>
       <r>  -22.4251    1.0000 </r>
       <r>  -21.9873    1.0000 </r>
       <r>  -21.9076    1.0000 </r>
       <r>  -21.9071    1.0000 </r>
       <r>  -20.2869    1.0000 </r>
       <r>  -20.2866    1.0000 </r>
       <r>  -20.1934    1.0000 </r>
       <r>  -20.0521    1.0000 </r>
       <r>  -20.0517    1.0000 </r>
       <r>  -20.0069    1.0000 </r>
       <r>  -19.8300    1.0000 </r>
       <r>  -19.8294    1.0000 </r>
       <r>  -19.8280    1.0000 </r>
       <r>  -19.1154    1.0000 </r>
       <r>  -19.1142    1.0000 </r>
       <r>  -18.8602    1.0000 </r>
       <r>  -17.7980    1.0000 </r>
       <r>  -17.7959    1.0000 </r>
       <r>  -17.5335    1.0000 </r>
       <r>  -17.4285    1.0000 </r>
       <r>  -17.4281    1.0000 </r>
       <r>  -17.3088    1.0000 </r>
       <r>  -17.3083    1.0000 </r>
       <r>  -17.1888    1.0000 </r>
       <r>  -16.6426    1.0000 </r>
       <r>  -16.6281    1.0000 </r>
       <r>  -16.3845    1.0000 </r>
       <r>  -15.4746    1.0000 </r>
       <r>  -15.3784    1.0000 </r>
       <r>  -15.3757    1.0000 </r>
       <r>  -15.2265    1.0000 </r>
       <r>  -15.2262    1.0000 </r>
       <r>  -15.1375    1.0000 </r>
       <r>  -14.9974    1.0000 </r>
       <r>  -14.5473    1.0000 </r>
       <r>  -14.5437    1.0000 </r>
       <r>  -14.2174    1.0000 </r>
       <r>  -14.2163    1.0000 </r>
       <r>  -14.1928    1.0000 </r>
       <r>  -13.8623    1.0000 </r>
       <r>  -13.7916    1.0000 </r>
       <r>  -13.7064    1.0000 </r>
       <r>  -13.6874    1.0000 </r>
       <r>  -13.6721    1.0000 </r>
       <r>  -13.1093    1.0000 </r>
       <r>  -13.1057    1.0000 </r>
       <r>  -12.9790    1.0000 </r>
       <r>  -12.9366    1.0000 </r>
       <r>  -12.9358    1.0000 </r>
       <r>  -12.9203    1.0000 </r>
       <r>  -12.9070    1.0000 </r>
       <r>  -12.9053    1.0000 </r>
       <r>  -12.6857    1.0000 </r>
       <r>  -12.6084    1.0000 </r>
       <r>  -12.5485    1.0000 </r>
       <r>  -12.5484    1.0000 </r>
       <r>  -12.4649    1.0000 </r>
       <r>  -12.4644    1.0000 </r>
       <r>  -12.4042    1.0000 </r>
       <r>  -12.3594    1.0000 </r>
       <r>  -12.3591    1.0000 </r>
       <r>  -12.3214    1.0000 </r>
       <r>  -12.2654    1.0000 </r>
       <r>  -11.9941    1.0000 </r>
       <r>  -11.8435    1.0000 </r>
       <r>  -11.8407    1.0000 </r>
       <r>  -11.7725    1.0000 </r>
       <r>  -11.7720    1.0000 </r>
       <r>  -11.6073    1.0000 </r>
       <r>  -11.5837    1.0000 </r>
       <r>  -11.5831    1.0000 </r>
       <r>  -11.3715    1.0000 </r>
       <r>  -11.1471    1.0000 </r>
       <r>  -11.1426    1.0000 </r>
       <r>  -11.0857    1.0000 </r>
       <r>  -10.9745    1.0000 </r>
       <r>  -10.9721    1.0000 </r>
       <r>  -10.9566    1.0000 </r>
       <r>  -10.8692    1.0000 </r>
       <r>  -10.6649    1.0000 </r>
       <r>  -10.6557    1.0000 </r>
       <r>  -10.4635    1.0000 </r>
       <r>   -9.9481    1.0000 </r>
       <r>   -9.9476    1.0000 </r>
       <r>   -9.7837    1.0000 </r>
       <r>   -9.7809    1.0000 </r>
       <r>   -9.5939    1.0000 </r>
       <r>   -9.5705    1.0000 </r>
       <r>   -9.5692    1.0000 </r>
       <r>   -9.4883    1.0000 </r>
       <r>   -9.3950    1.0000 </r>
       <r>   -9.3799    1.0000 </r>
       <r>   -9.3743    1.0000 </r>
       <r>   -9.2233    1.0000 </r>
       <r>   -9.1281    1.0000 </r>
       <r>   -9.1274    1.0000 </r>
       <r>   -9.1051    1.0000 </r>
       <r>   -8.9122    1.0000 </r>
       <r>   -8.8324    1.0000 </r>
       <r>   -8.8242    1.0000 </r>
       <r>   -8.8134    1.0000 </r>
       <r>   -8.5588    1.0000 </r>
       <r>   -8.5586    1.0000 </r>
       <r>   -8.3599    1.0000 </r>
       <r>   -8.3598    1.0000 </r>
       <r>   -7.4957    1.0000 </r>
       <r>   -7.4943    1.0000 </r>
       <r>   -7.4937    1.0000 </r>
       <r>   -7.4841    1.0000 </r>
       <r>   -7.4837    1.0000 </r>
       <r>   -7.4830    1.0000 </r>
       <r>   -7.3432    1.0000 </r>
       <r>   -7.3289    1.0000 </r>
       <r>   -7.3258    1.0000 </r>
       <r>   -7.1514    1.0000 </r>
       <r>   -7.1314    1.0000 </r>
       <r>   -7.1309    1.0000 </r>
       <r>   -7.0639    1.0000 </r>
       <r>   -7.0621    1.0000 </r>
       <r>   -7.0618    1.0000 </r>
       <r>   -6.9159    1.0000 </r>
       <r>   -6.9156    1.0000 </r>
       <r>   -6.9138    1.0000 </r>
       <r>   -6.7916    1.0000 </r>
       <r>   -6.7913    1.0000 </r>
       <r>   -6.7475    1.0000 </r>
       <r>   -6.7078    1.0000 </r>
       <r>   -6.6698    1.0000 </r>
       <r>   -6.6694    1.0000 </r>
       <r>   -6.4908    1.0000 </r>
       <r>   -6.4907    1.0000 </r>
       <r>   -6.3538    1.0000 </r>
       <r>   -6.3536    1.0000 </r>
       <r>   -6.2920    1.0000 </r>
       <r>   -6.2561    1.0000 </r>
       <r>   -6.2558    1.0000 </r>
       <r>   -6.2221    1.0000 </r>
       <r>   -6.1993    1.0000 </r>
       <r>   -6.1989    1.0000 </r>
       <r>   -3.3940    0.0000 </r>
       <r>   -3.3937    0.0000 </r>
       <r>   -3.3476    0.0000 </r>
       <r>   -3.3157    0.0000 </r>
       <r>   -3.3152    0.0000 </r>
       <r>   -3.2593    0.0000 </r>
       <r>   -3.0334    0.0000 </r>
       <r>   -3.0333    0.0000 </r>
       <r>   -2.7386    0.0000 </r>
       <r>   -2.7385    0.0000 </r>
       <r>   -2.0094    0.0000 </r>
       <r>   -1.8529    0.0000 </r>
       <r>   -1.8523    0.0000 </r>
       <r>   -1.7083    0.0000 </r>
       <r>   -1.4411    0.0000 </r>
       <r>   -1.4406    0.0000 </r>
       <r>   -1.3544    0.0000 </r>
       <r>   -1.0426    0.0000 </r>
       <r>   -1.0423    0.0000 </r>
       <r>   -0.9419    0.0000 </r>
       <r>   -0.4884    0.0000 </r>
       <r>   -0.4111    0.0000 </r>
       <r>   -0.4109    0.0000 </r>
       <r>   -0.2212    0.0000 </r>
       <r>   -0.0363    0.0000 </r>
       <r>   -0.0338    0.0000 </r>
       <r>    0.0959    0.0000 </r>
       <r>    0.1939    0.0000 </r>
       <r>    0.1954    0.0000 </r>
       <r>    0.2720    0.0000 </r>
       <r>    0.4805    0.0000 </r>
       <r>    0.5571    0.0000 </r>
       <r>    0.5617    0.0000 </r>
       <r>    0.6654    0.0000 </r>
       <r>    0.8094    0.0000 </r>
       <r>    0.8115    0.0000 </r>
       <r>    0.8271    0.0000 </r>
       <r>    0.8746    0.0000 </r>
       <r>    0.8810    0.0000 </r>
       <r>    0.9043    0.0000 </r>
       <r>    0.9659    0.0000 </r>
       <r>    1.0372    0.0000 </r>
       <r>    1.0412    0.0000 </r>
       <r>    1.0803    0.0000 </r>
       <r>    1.0910    0.0000 </r>
       <r>    1.0967    0.0000 </r>
       <r>    1.1142    0.0000 </r>
       <r>    1.1773    0.0000 </r>
       <r>    1.2155    0.0000 </r>
      </set>
      <set comment="kpoint 4">
       <r>  -30.5703    1.0000 </r>
       <r>  -30.5700    1.0000 </r>
       <r>  -30.5689    1.0000 </r>
       <r>  -30.5448    1.0000 </r>
       <r>  -30.5444    1.0000 </r>
       <r>  -30.5440    1.0000 </r>
       <r>  -26.1761    1.0000 </r>
       <r>  -26.1759    1.0000 </r>
       <r>  -26.1750    1.0000 </r>
       <r>  -26.1417    1.0000 </r>
       <r>  -26.1414    1.0000 </r>
       <r>  -26.1410    1.0000 </r>
       <r>  -26.0651    1.0000 </r>
       <r>  -25.7643    1.0000 </r>
       <r>  -23.1134    1.0000 </r>
       <r>  -23.1133    1.0000 </r>
       <r>  -22.8902    1.0000 </r>
       <r>  -22.8902    1.0000 </r>
       <r>  -22.5244    1.0000 </r>
       <r>  -22.4269    1.0000 </r>
       <r>  -22.4251    1.0000 </r>
       <r>  -21.9867    1.0000 </r>
       <r>  -21.9081    1.0000 </r>
       <r>  -21.9071    1.0000 </r>
       <r>  -20.2869    1.0000 </r>
       <r>  -20.2861    1.0000 </r>
       <r>  -20.1943    1.0000 </r>
       <r>  -20.0521    1.0000 </r>
       <r>  -20.0512    1.0000 </r>
       <r>  -20.0070    1.0000 </r>
       <r>  -19.8302    1.0000 </r>
       <r>  -19.8295    1.0000 </r>
       <r>  -19.8278    1.0000 </r>
       <r>  -19.1154    1.0000 </r>
       <r>  -19.1125    1.0000 </r>
       <r>  -18.8625    1.0000 </r>
       <r>  -17.7980    1.0000 </r>
       <r>  -17.7932    1.0000 </r>
       <r>  -17.5348    1.0000 </r>
       <r>  -17.4285    1.0000 </r>
       <r>  -17.4281    1.0000 </r>
       <r>  -17.3094    1.0000 </r>
       <r>  -17.3083    1.0000 </r>
       <r>  -17.1867    1.0000 </r>
       <r>  -16.6584    1.0000 </r>
       <r>  -16.6281    1.0000 </r>
       <r>  -16.3669    1.0000 </r>
       <r>  -15.4828    1.0000 </r>
       <r>  -15.3784    1.0000 </r>
       <r>  -15.3728    1.0000 </r>
       <r>  -15.2267    1.0000 </r>
       <r>  -15.2262    1.0000 </r>
       <r>  -15.1372    1.0000 </r>
       <r>  -14.9995    1.0000 </r>
       <r>  -14.5473    1.0000 </r>
       <r>  -14.5391    1.0000 </r>
       <r>  -14.2185    1.0000 </r>
       <r>  -14.2163    1.0000 </r>
       <r>  -14.1928    1.0000 </r>
       <r>  -13.8621    1.0000 </r>
       <r>  -13.7921    1.0000 </r>
       <r>  -13.7131    1.0000 </r>
       <r>  -13.6874    1.0000 </r>
       <r>  -13.6622    1.0000 </r>
       <r>  -13.1137    1.0000 </r>
       <r>  -13.1056    1.0000 </r>
       <r>  -12.9789    1.0000 </r>
       <r>  -12.9373    1.0000 </r>
       <r>  -12.9359    1.0000 </r>
       <r>  -12.9202    1.0000 </r>
       <r>  -12.9092    1.0000 </r>
       <r>  -12.9054    1.0000 </r>
       <r>  -12.6825    1.0000 </r>
       <r>  -12.6084    1.0000 </r>
       <r>  -12.5485    1.0000 </r>
       <r>  -12.5481    1.0000 </r>
       <r>  -12.4650    1.0000 </r>
       <r>  -12.4644    1.0000 </r>
       <r>  -12.4040    1.0000 </r>
[...]
       <r>   -30.2944     0.0000    12.0000 </r>
       <r>   -30.1776     0.0000    12.0000 </r>
       <r>   -30.0609     0.0000    12.0000 </r>
       <r>   -29.9441     0.0000    12.0000 </r>
       <r>   -29.8274     0.0000    12.0000 </r>
       <r>   -29.7107     0.0000    12.0000 </r>
       <r>   -29.5939     0.0000    12.0000 </r>
       <r>   -29.4772     0.0000    12.0000 </r>
       <r>   -29.3604     0.0000    12.0000 </r>
       <r>   -29.2437     0.0000    12.0000 </r>
       <r>   -29.1269     0.0000    12.0000 </r>
       <r>   -29.0102     0.0000    12.0000 </r>
       <r>   -28.8934     0.0000    12.0000 </r>
       <r>   -28.7767     0.0000    12.0000 </r>
       <r>   -28.6600     0.0000    12.0000 </r>
       <r>   -28.5432     0.0000    12.0000 </r>
       <r>   -28.4265     0.0000    12.0000 </r>
       <r>   -28.3097     0.0000    12.0000 </r>
       <r>   -28.1930     0.0000    12.0000 </r>
       <r>   -28.0762     0.0000    12.0000 </r>
       <r>   -27.9595     0.0000    12.0000 </r>
       <r>   -27.8427     0.0000    12.0000 </r>
       <r>   -27.7260     0.0000    12.0000 </r>
       <r>   -27.6093     0.0000    12.0000 </r>
       <r>   -27.4925     0.0000    12.0000 </r>
       <r>   -27.3758     0.0000    12.0000 </r>
       <r>   -27.2590     0.0000    12.0000 </r>
       <r>   -27.1423     0.0000    12.0000 </r>
       <r>   -27.0255     0.0000    12.0000 </r>
       <r>   -26.9088     0.0000    12.0000 </r>
       <r>   -26.7920     0.0000    12.0000 </r>
       <r>   -26.6753     0.0000    12.0000 </r>
       <r>   -26.5585     0.0000    12.0000 </r>
       <r>   -26.4418     0.0000    12.0000 </r>
       <r>   -26.3251     0.0000    12.0000 </r>
       <r>   -26.2083     0.0001    12.0000 </r>
       <r>   -26.0916    51.3958    24.0002 </r>
       <r>   -25.9748     0.0000    26.0000 </r>
       <r>   -25.8581     0.0000    26.0000 </r>
       <r>   -25.7413    17.1215    27.9988 </r>
       <r>   -25.6246     0.0000    28.0000 </r>
       <r>   -25.5078     0.0000    28.0000 </r>
       <r>   -25.3911     0.0000    28.0000 </r>
       <r>   -25.2744     0.0000    28.0000 </r>
       <r>   -25.1576     0.0000    28.0000 </r>
       <r>   -25.0409     0.0000    28.0000 </r>
       <r>   -24.9241     0.0000    28.0000 </r>
       <r>   -24.8074     0.0000    28.0000 </r>
       <r>   -24.6906     0.0000    28.0000 </r>
       <r>   -24.5739     0.0000    28.0000 </r>
       <r>   -24.4571     0.0000    28.0000 </r>
       <r>   -24.3404     0.0000    28.0000 </r>
       <r>   -24.2237     0.0000    28.0000 </r>
       <r>   -24.1069     0.0000    28.0000 </r>
       <r>   -23.9902     0.0000    28.0000 </r>
       <r>   -23.8734     0.0000    28.0000 </r>
       <r>   -23.7567     0.0000    28.0000 </r>
       <r>   -23.6399     0.0000    28.0000 </r>
       <r>   -23.5232     0.0000    28.0000 </r>
       <r>   -23.4064     0.0000    28.0000 </r>
       <r>   -23.2897     0.0000    28.0000 </r>
       <r>   -23.1730     0.0000    28.0000 </r>
       <r>   -23.0562    34.2628    32.0000 </r>
       <r>   -22.9395     0.0000    32.0000 </r>
       <r>   -22.8227    34.2628    36.0000 </r>
       <r>   -22.7060     0.0000    36.0000 </r>
       <r>   -22.5892     0.0000    36.0000 </r>
       <r>   -22.4725    18.1872    38.1233 </r>
       <r>   -22.3557    21.9853    42.0000 </r>
       <r>   -22.2390     0.0000    42.0000 </r>
       <r>   -22.1223     0.0000    42.0000 </r>
       <r>   -22.0055     0.0145    42.0017 </r>
       <r>   -21.8888    43.8777    47.9892 </r>
       <r>   -21.7720     0.0000    48.0000 </r>
       <r>   -21.6553     0.0000    48.0000 </r>
       <r>   -21.5385     0.0000    48.0000 </r>
       <r>   -21.4218     0.0000    48.0000 </r>
       <r>   -21.3050     0.0000    48.0000 </r>
       <r>   -21.1883     0.0000    48.0000 </r>
       <r>   -21.0716     0.0000    48.0000 </r>
       <r>   -20.9548     0.0000    48.0000 </r>
       <r>   -20.8381     0.0000    48.0000 </r>
       <r>   -20.7213     0.0000    48.0000 </r>
       <r>   -20.6046     0.0000    48.0000 </r>
       <r>   -20.4878     0.0000    48.0000 </r>
       <r>   -20.3711     0.0000    48.0000 </r>
       <r>   -20.2543    33.7898    51.9448 </r>
       <r>   -20.1376     7.7091    54.0000 </r>
       <r>   -20.0209    35.4121    58.1342 </r>
       <r>   -19.9041     0.0000    60.0000 </r>
       <r>   -19.7874    51.3942    66.0000 </r>
       <r>   -19.6706     0.0000    66.0000 </r>
       <r>   -19.5539     0.0000    66.0000 </r>
       <r>   -19.4371     0.0000    66.0000 </r>
       <r>   -19.3204     0.0000    66.0000 </r>
       <r>   -19.2036     0.0000    66.0000 </r>
       <r>   -19.0869    22.4496    68.6209 </r>
       <r>   -18.9701    12.3289    70.4060 </r>
       <r>   -18.8534     7.5714    71.9506 </r>
       <r>   -18.7367     0.0000    72.0000 </r>
       <r>   -18.6199     0.0000    72.0000 </r>
       <r>   -18.5032     0.0000    72.0000 </r>
       <r>   -18.3864     0.0000    72.0000 </r>
       <r>   -18.2697     0.0000    72.0000 </r>
       <r>   -18.1529     0.0000    72.0000 </r>
       <r>   -18.0362     0.0000    72.0000 </r>
       <r>   -17.9194     0.0000    72.0000 </r>
       <r>   -17.8027     4.7794    72.5580 </r>
       <r>   -17.6860     7.1521    75.3350 </r>
       <r>   -17.5692    10.4351    77.2182 </r>
       <r>   -17.4525     0.5799    78.0010 </r>
       <r>   -17.3357     0.4311    82.0503 </r>
       <r>   -17.2190     0.0000    86.0000 </r>
       <r>   -17.1022     6.3783    87.0446 </r>
       <r>   -16.9855     3.4606    88.1373 </r>
       <r>   -16.8687     5.1837    89.1718 </r>
       <r>   -16.7520     1.7617    89.5057 </r>
       <r>   -16.6353     4.9578    90.2121 </r>
       <r>   -16.5185     0.0000    92.0000 </r>
       <r>   -16.4018     0.3518    92.0411 </r>
       <r>   -16.2850     1.6900    92.4306 </r>
       <r>   -16.1683     1.5918    92.6858 </r>
       <r>   -16.0515     1.5475    92.9473 </r>
       <r>   -15.9348     5.4381    93.6682 </r>
       <r>   -15.8180     3.4364    94.2345 </r>
       <r>   -15.7013     5.1143    95.0304 </r>
       <r>   -15.5846     2.0407    95.3716 </r>
       <r>   -15.4678     3.6859    95.9303 </r>
       <r>   -15.3511    23.0492    98.6909 </r>
       <r>   -15.2343     7.1860   100.8389 </r>
       <r>   -15.1176    16.0375   105.8723 </r>
       <r>   -15.0008    15.1935   107.7738 </r>
       <r>   -14.8841     0.0000   108.0000 </r>
       <r>   -14.7673     0.0000   108.0000 </r>
       <r>   -14.6506     0.0000   108.0000 </r>
       <r>   -14.5339    19.0026   110.2185 </r>
       <r>   -14.4171     4.5925   111.0361 </r>
       <r>   -14.3004     0.0077   112.0009 </r>
       <r>   -14.1836    41.3366   117.7925 </r>
       <r>   -14.0669     0.0000   118.0000 </r>
       <r>   -13.9501     0.0000   118.0000 </r>
       <r>   -13.8334    17.1624   120.0036 </r>
       <r>   -13.7166    18.6254   123.7411 </r>
       <r>   -13.5999     3.5411   126.5467 </r>
       <r>   -13.4832     3.4855   127.1069 </r>
       <r>   -13.3664     5.0234   128.1865 </r>
       <r>   -13.2497     5.8840   129.1203 </r>
       <r>   -13.1329     3.0730   129.6254 </r>
       <r>   -13.0162     0.0001   132.0000 </r>
       <r>   -12.8994    86.5884   143.6087 </r>
       <r>   -12.7827     0.0000   144.0000 </r>
       <r>   -12.6659     3.7486   144.4376 </r>
       <r>   -12.5492    28.9509   149.3799 </r>
       <r>   -12.4324    34.2629   156.0000 </r>
       <r>   -12.3157    54.1050   163.9165 </r>
       <r>   -12.1990    17.1314   166.0000 </r>
       <r>   -12.0822     0.0000   166.0000 </r>
       <r>   -11.9655    17.1312   168.0000 </r>
       <r>   -11.8487     2.6848   168.3134 </r>
       <r>   -11.7320    37.4600   174.8733 </r>
       <r>   -11.6152     1.4543   176.1698 </r>
       <r>   -11.4985    12.5630   182.0000 </r>
       <r>   -11.3817     0.6419   182.0749 </r>
       <r>   -11.2650     9.6159   185.1226 </r>
       <r>   -11.1483     6.3456   186.0408 </r>
       <r>   -11.0315    17.1607   190.0034 </r>
       <r>   -10.9148    39.6771   195.9988 </r>
       <r>   -10.7980    26.2114   199.0600 </r>
       <r>   -10.6813     3.5274   199.7451 </r>
       <r>   -10.5645     0.0000   202.0000 </r>
       <r>   -10.4478     1.9665   202.2296 </r>
       <r>   -10.3310     1.9012   202.5886 </r>
       <r>   -10.2143     1.9380   202.9263 </r>
       <r>   -10.0976     6.9403   203.8436 </r>
       <r>    -9.9808     7.8159   204.9125 </r>
       <r>    -9.8641    15.9884   209.3332 </r>
       <r>    -9.7473    21.4143   212.0000 </r>
       <r>    -9.6306     3.7889   212.4423 </r>
       <r>    -9.5138    46.8592   219.3372 </r>
       <r>    -9.3971     1.1236   220.1312 </r>
       <r>    -9.2803    25.0435   225.9237 </r>
       <r>    -9.1636     6.3003   228.0022 </r>
       <r>    -9.0469    12.5460   233.4647 </r>
       <r>    -8.9301    10.8483   235.2665 </r>
       <r>    -8.8134    34.2165   239.9946 </r>
       <r>    -8.6966     9.1368   242.0000 </r>
       <r>    -8.5799     0.0362   242.0042 </r>
       <r>    -8.4631     0.0000   246.0000 </r>
       <r>    -8.3464    33.5711   249.9192 </r>
       <r>    -8.2296     0.0000   250.0000 </r>
       <r>    -8.1129     0.0000   250.0000 </r>
       <r>    -7.9962     0.0000   250.0000 </r>
       <r>    -7.8794     0.0000   250.0000 </r>
       <r>    -7.7627     0.0000   250.0000 </r>
       <r>    -7.6459     0.0000   250.0000 </r>
       <r>    -7.5292     0.0002   250.0000 </r>
       <r>    -7.4124    65.6704   262.0000 </r>
       <r>    -7.2957    39.3193   266.9570 </r>
       <r>    -7.1789     0.5583   268.0652 </r>
       <r>    -7.0622    57.1979   276.6776 </r>
       <r>    -6.9455     0.0012   280.0001 </r>
       <r>    -6.8287     0.0000   286.0000 </r>
       <r>    -6.7120    52.2060   293.4948 </r>
       <r>    -6.5952    34.2628   298.0000 </r>
       <r>    -6.4785    33.0045   301.8531 </r>
       <r>    -6.3617     4.8133   302.5619 </r>
       <r>    -6.2450    49.5496   311.7847 </r>
       <r>    -6.1282    34.2628   318.0000 </r>
       <r>    -6.0115     0.0000   318.0000 </r>
       <r>    -5.8948     0.0000   318.0000 </r>
       <r>    -5.7780     0.0000   318.0000 </r>
       <r>    -5.6613     0.0000   318.0000 </r>
       <r>    -5.5445     0.0000   318.0000 </r>
       <r>    -5.4278     0.0000   318.0000 </r>
       <r>    -5.3110     0.0000   318.0000 </r>
       <r>    -5.1943     0.0000   318.0000 </r>
       <r>    -5.0775     0.0000   318.0000 </r>
       <r>    -4.9608     0.0000   318.0000 </r>
       <r>    -4.8440     0.0000   318.0000 </r>
       <r>    -4.7273     0.0000   318.0000 </r>
       <r>    -4.6106     0.0000   318.0000 </r>
       <r>    -4.4938     0.0000   318.0000 </r>
       <r>    -4.3771     0.0000   318.0000 </r>
       <r>    -4.2603     0.0000   318.0000 </r>
       <r>    -4.1436     0.0000   318.0000 </r>
       <r>    -4.0268     0.0000   318.0000 </r>
       <r>    -3.9101     0.0000   318.0000 </r>
       <r>    -3.7933     0.0000   318.0000 </r>
       <r>    -3.6766     0.0000   318.0000 </r>
       <r>    -3.5599     0.0000   318.0000 </r>
       <r>    -3.4431     0.0000   318.0000 </r>
       <r>    -3.3264    52.4244   324.1203 </r>
       <r>    -3.2096    17.1314   330.0000 </r>
       <r>    -3.0929     0.0000   330.0000 </r>
       <r>    -2.9761    34.2628   334.0000 </r>
       <r>    -2.8594     0.0000   334.0000 </r>
       <r>    -2.7426    10.0281   335.1707 </r>
       <r>    -2.6259     0.0000   338.0000 </r>
       <r>    -2.5092     0.0000   338.0000 </r>
       <r>    -2.3924     0.0000   338.0000 </r>
       <r>    -2.2757     0.0000   338.0000 </r>
       <r>    -2.1589     0.0000   338.0000 </r>
       <r>    -2.0422     0.0029   338.0003 </r>
       <r>    -1.9254     0.0000   340.0000 </r>
       <r>    -1.8087    33.7172   343.9363 </r>
       <r>    -1.6919    17.1022   345.9966 </r>
       <r>    -1.5752     0.0000   346.0000 </r>
       <r>    -1.4585     0.0778   346.0091 </r>
       <r>    -1.3417    27.5817   351.9867 </r>
       <r>    -1.2250     0.0000   352.0000 </r>
       <r>    -1.1082     0.0000   352.0000 </r>
       <r>    -0.9915    34.2628   356.0000 </r>
       <r>    -0.8747    17.1314   358.0000 </r>
       <r>    -0.7580     0.0000   358.0000 </r>
       <r>    -0.6412     0.0000   358.0000 </r>
       <r>    -0.5245     0.0000   358.0000 </r>
       <r>    -0.4078    16.1164   361.8815 </r>
       <r>    -0.2910     0.0390   364.0045 </r>
       <r>    -0.1743     6.2815   366.0000 </r>
       <r>    -0.0575     1.9857   366.2318 </r>
       <r>     0.0592     9.3003   369.4524 </r>
       <r>     0.1760    25.6741   373.1640 </r>
       <r>     0.2927    16.0431   376.6729 </r>
       <r>     0.4095     9.0886   379.0610 </r>
       <r>     0.5262     4.7432   380.0204 </r>
       <r>     0.6429    28.5932   385.2048 </r>
       <r>     0.7597    14.9006   387.7396 </r>
       <r>     0.8764    47.9818   394.8349 </r>
       <r>     0.9932    32.4015   400.0827 </r>
       <r>     1.1099    47.3529   407.2282 </r>
       <r>     1.2267    42.9019   414.5086 </r>
       <r>     1.3434     3.1408   416.0000 </r>
       <r>     1.4602     0.0000   416.0000 </r>
       <r>     1.5769     0.0000   416.0000 </r>
       <r>     1.6937     0.0000   416.0000 </r>
       <r>     1.8104     0.0000   416.0000 </r>
       <r>     1.9271     0.0000   416.0000 </r>
       <r>     2.0439     0.0000   416.0000 </r>
       <r>     2.1606     0.0000   416.0000 </r>
       <r>     2.2774     0.0000   416.0000 </r>
       <r>     2.3941     0.0000   416.0000 </r>
       <r>     2.5109     0.0000   416.0000 </r>
       <r>     2.6276     0.0000   416.0000 </r>
       <r>     2.7444     0.0000   416.0000 </r>
       <r>     2.8611     0.0000   416.0000 </r>
      </set>
     </set>
    </array>
   </total>
  </dos>
 </calculation>
 <structure name="finalpos" >
  <crystal>
   <varray name="basis" >
    <v>      22.02563701      -0.00000002       0.00000000 </v>
    <v>     -11.01281849      19.07476120       0.00000000 </v>
    <v>       0.00000000       0.00000000      20.00000000 </v>
   </varray>
   <i name="volume">   8402.67532097 </i>
   <varray name="rec_basis" >
    <v>       0.04540164       0.02621265       0.00000000 </v>
    <v>       0.00000000       0.05242530       0.00000000 </v>
    <v>       0.00000000       0.00000000       0.05000000 </v>
   </varray>
  </crystal>
  <varray name="positions" >
   <v>       0.38011240       0.19677006       0.36643682 </v>
   <v>       0.62754300       0.26115082       0.49872776 </v>
   <v>       0.63360782       0.37245700       0.49872776 </v>
   <v>       0.73884918       0.36639218       0.49872776 </v>
   <v>       0.03274149       0.07195126       0.49861605 </v>
   <v>       0.03920977       0.96725851       0.49861605 </v>
   <v>       0.92804874       0.96079023       0.49861605 </v>
   <v>       0.81665766       0.61988760       0.36643682 </v>
   <v>       0.80322994       0.18334234       0.36643682 </v>
   <v>       0.98594520       0.71640198       0.49347582 </v>
   <v>       0.73045678       0.01405480       0.49347582 </v>
   <v>       0.28359802       0.26954322       0.49347582 </v>
   <v>       0.37234257       0.20036596       0.49133528 </v>
   <v>       0.41307370       0.21424555       0.43329913 </v>
   <v>       0.48589810       0.24622655       0.43556780 </v>
   <v>       0.52021210       0.26627098       0.49694236 </v>
   <v>       0.48090122       0.25249094       0.55566909 </v>
   <v>       0.40803240       0.21915036       0.55264093 </v>
   <v>       0.59826160       0.30199884       0.49868216 </v>
   <v>       0.69800116       0.29626276       0.49868216 </v>
   <v>       0.70373724       0.40173840       0.49868216 </v>
   <v>       0.96261197       0.03128335       0.49859104 </v>
   <v>       0.06867138       0.03738803       0.49859104 </v>
   <v>       0.96871665       0.93132862       0.49859104 </v>
   <v>       0.93346730       0.85388750       0.49790335 </v>
   <v>       0.86003690       0.81275241       0.49664518 </v>
   <v>       0.82774308       0.74005858       0.49419640 </v>
   <v>       0.86695989       0.70574464       0.49192077 </v>
   <v>       0.82802339       0.62765743       0.49133528 </v>
   <v>       0.80117185       0.58692630       0.43329913 </v>
   <v>       0.76032845       0.51410190       0.43556780 </v>
   <v>       0.74605887       0.47978790       0.49694236 </v>
   <v>       0.92042020       0.06653270       0.49790335 </v>
   <v>       0.95271551       0.13996310       0.49664518 </v>
   <v>       0.91231550       0.17225692       0.49419640 </v>
   <v>       0.83878475       0.13304011       0.49192077 </v>
   <v>       0.79963404       0.17197661       0.49133528 </v>
   <v>       0.78575445       0.19882815       0.43329913 </v>
   <v>       0.75377345       0.23967155       0.43556780 </v>
   <v>       0.73372902       0.25394113       0.49694236 </v>
   <v>       0.14611250       0.07957980       0.49790335 </v>
   <v>       0.18724759       0.04728449       0.49664518 </v>
   <v>       0.25994142       0.08768450       0.49419640 </v>
   <v>       0.29425536       0.16121525       0.49192077 </v>
   <v>       0.94035778       0.74793330       0.49509536 </v>
   <v>       0.97339430       0.82061331       0.49790105 </v>
   <v>       0.77158972       0.51909878       0.55566909 </v>
   <v>       0.81111795       0.59196760       0.55264093 </v>
   <v>       0.80757552       0.05964222       0.49509536 </v>
   <v>       0.84721901       0.02660570       0.49790105 </v>
   <v>       0.74750906       0.22841028       0.55566909 </v>
   <v>       0.78084964       0.18888205       0.55264093 </v>
   <v>       0.25206670       0.19242448       0.49509536 </v>
   <v>       0.17938669       0.15278099       0.49790105 </v>
   <v>       0.41637948       0.19752391       0.31871445 </v>
   <v>       0.31821224       0.18272299       0.36201326 </v>
   <v>       0.70593392       0.95122510       0.50741685 </v>
   <v>       0.78114443       0.58362052       0.31871445 </v>
   <v>       0.86451075       0.68178776       0.36201326 </v>
   <v>       0.80247609       0.21885557       0.31871445 </v>
   <v>       0.81727701       0.13548925       0.36201326 </v>
   <v>       0.95866491       0.65354132       0.47817586 </v>
   <v>       0.04877490       0.75470882       0.50741685 </v>
   <v>       0.69487642       0.04133509       0.47817586 </v>
   <v>       0.34645868       0.30512358       0.47817586 </v>
   <v>       0.24529118       0.29406608       0.50741685 </v>
   <v>       0.51454068       0.25541576       0.38882152 </v>
   <v>       0.50721786       0.26746874       0.60404148 </v>
   <v>       0.37765080       0.20776952       0.59862864 </v>
   <v>       0.74087508       0.48545932       0.38882152 </v>
   <v>       0.82881200       0.83854882       0.49729424 </v>
   <v>       0.77069151       0.70846847       0.49307910 </v>
   <v>       0.74458424       0.25912492       0.38882152 </v>
   <v>       0.00973681       0.17118800       0.49729424 </v>
   <v>       0.93777697       0.22930849       0.49307910 </v>
   <v>       0.16145118       0.99026319       0.49729424 </v>
   <v>       0.29153153       0.06222303       0.49307910 </v>
   <v>       0.03031951       0.85125663       0.49937793 </v>
   <v>       0.76025089       0.49278214       0.60404148 </v>
   <v>       0.83011872       0.62234920       0.59862864 </v>
   <v>       0.82093712       0.96968049       0.49937793 </v>
   <v>       0.73253126       0.23974911       0.60404148 </v>
   <v>       0.79223048       0.16988128       0.59862864 </v>
   <v>       0.14874337       0.17906288       0.49937793 </v>
  </varray>
 </structure>
</modeling>
