<?xml version="1.0" encoding="ISO-8859-1"?>
<modeling>
 <generator>
  <i name="program" type="string">vasp </i>
  <i name="version" type="string">5.4.4.18Apr17-6-g9f103f2a35  </i>
  <i name="subversion" type="string">(build Jun 07 2020 16:50:00) complex            parallel </i>
  <i name="platform" type="string">LinuxIFC </i>
  <i name="date" type="string">2023 03 06 </i>
  <i name="time" type="string">21:17:38 </i>
 </generator>
 <incar>
  <i type="string" name="SYSTEM">Simulation for cell shape cell volume r</i>
  <i type="int" name="ISTART">     1</i>
  <i type="string" name="PREC">high</i>
  <i type="string" name="ALGO">48</i>
  <i type="int" name="ICHARG">    11</i>
  <i type="int" name="NELM">   200</i>
  <i type="int" name="IBRION">    -1</i>
  <i name="EDIFF">      0.00001000</i>
  <i name="EDIFFG">     -0.01000000</i>
  <i type="int" name="NSW">     0</i>
  <i type="int" name="ISIF">     2</i>
  <i name="ENCUT">    500.00000000</i>
  <i name="POTIM">      0.30000000</i>
  <i type="string" name="LREAL">A</i>
  <i type="int" name="ISMEAR">     0</i>
  <i name="SIGMA">      0.01000000</i>
  <i type="int" name="NWRITE">     0</i>
  <i type="logical" name="LWAVE"> F  </i>
  <i type="logical" name="LCHARG"> F  </i>
  <v type="int" name="KPOINT_BSE">    -1     0     0     0</v>
  <i type="int" name="NELM">   200</i>
  <i type="string" name="GGA">PE</i>
 </incar>
 <structure name="primitive_cell" >
  <crystal>
   <varray name="basis" >
    <v>      22.35440346      -0.00005095       0.00000000 </v>
    <v>     -11.17724594      19.36114769       0.00000000 </v>
    <v>       0.00000000       0.00000000      20.00000000 </v>
   </varray>
   <i name="volume">   8656.12675094 </i>
   <varray name="rec_basis" >
    <v>       0.04473397       0.02582505       0.00000000 </v>
    <v>       0.00000012       0.05164990       0.00000000 </v>
    <v>       0.00000000       0.00000000       0.05000000 </v>
   </varray>
  </crystal>
  <varray name="positions" >
   <v>      -0.04918673       0.42845776       0.00128211 </v>
   <v>      -0.07111749       0.47766625      -0.00490683 </v>
   <v>       0.02281473       0.45183381       0.00637750 </v>
   <v>      -0.09860186       0.35588255       0.00155541 </v>
   <v>      -0.15311364       0.34101128      -0.00441924 </v>
   <v>      -0.07836031       0.31058407       0.00790277 </v>
   <v>       0.00374019       0.35884349       0.01228808 </v>
   <v>      -0.14004086       0.45617202      -0.00934862 </v>
   <v>       0.04731180       0.40751449       0.01241864 </v>
   <v>      -0.02281473      -0.45183381      -0.00637750 </v>
   <v>       0.07111749      -0.47766625       0.00490683 </v>
   <v>       0.04918673      -0.42845776      -0.00128211 </v>
   <v>      -0.14339878       0.49808845      -0.01323247 </v>
   <v>      -0.04731180      -0.40751449      -0.01241864 </v>
   <v>      -0.12451365       0.23908385       0.00803003 </v>
   <v>       0.14004086      -0.45617202       0.00934862 </v>
   <v>       0.14339878      -0.49808845       0.01323247 </v>
   <v>      -0.22222466       0.23928083       0.00899402 </v>
   <v>       0.09860186      -0.35588255      -0.00155541 </v>
   <v>      -0.19692316       0.20840879       0.00828245 </v>
   <v>      -0.00374019      -0.35884349      -0.01228808 </v>
   <v>      -0.03848707       0.22224109       0.00911004 </v>
   <v>      -0.09465413       0.19695513       0.00834217 </v>
   <v>       0.15311364      -0.34101128       0.00441924 </v>
   <v>       0.07836031      -0.31058407      -0.00790277 </v>
   <v>      -0.23905619       0.13642176       0.00804302 </v>
   <v>      -0.13638489       0.12455547       0.00810352 </v>
   <v>       0.12451365      -0.23908385      -0.00803003 </v>
   <v>      -0.20837739       0.09469299       0.00835855 </v>
   <v>      -0.31056050       0.11106790       0.00794362 </v>
   <v>      -0.35884569       0.14488747       0.01229925 </v>
   <v>      -0.00583905       0.15313885      -0.00440788 </v>
   <v>       0.22222466      -0.23928083      -0.00899402 </v>
   <v>       0.03848707      -0.22224109      -0.00911004 </v>
   <v>       0.19692316      -0.20840879      -0.00828245 </v>
   <v>      -0.11102357       0.07841512       0.00804569 </v>
   <v>       0.09465413      -0.19695513      -0.00834217 </v>
   <v>      -0.40751707       0.13978588       0.01241970 </v>
   <v>      -0.04548739       0.09864024       0.00163638 </v>
   <v>      -0.23924940       0.03852388       0.00914908 </v>
   <v>      -0.35585824       0.04553406       0.00154837 </v>
   <v>      -0.34098293       0.00589921      -0.00446478 </v>
   <v>      -0.45183856       0.07097228       0.00638096 </v>
   <v>       0.09623600       0.14002127      -0.00935067 </v>
   <v>       0.23905619      -0.13642176      -0.00804302 </v>
   <v>       0.13638489      -0.12455547      -0.00810352 </v>
   <v>      -0.14484763      -0.00367095       0.01243949 </v>
   <v>      -0.02233640       0.04921165       0.00134978 </v>
   <v>      -0.42844557       0.02235985       0.00128032 </v>
   <v>       0.00583905      -0.15313885       0.00440788 </v>
   <v>       0.49807789       0.14147336       0.01323512 </v>
   <v>       0.20837739      -0.09469299      -0.00835855 </v>
   <v>       0.14149807       0.14335400      -0.01326436 </v>
   <v>       0.04878984       0.07110729      -0.00491281 </v>
   <v>       0.35884569      -0.14488747      -0.01229925 </v>
   <v>       0.31056050      -0.11106790      -0.00794362 </v>
   <v>       0.04548739      -0.09864024      -0.00163638 </v>
   <v>       0.47765629       0.04877728       0.00491044 </v>
   <v>       0.11102357      -0.07841512      -0.00804569 </v>
   <v>       0.45616572       0.09620239       0.00934297 </v>
   <v>      -0.13976250      -0.04725002       0.01257635 </v>
   <v>      -0.07096118      -0.02278245       0.00645805 </v>
   <v>       0.40751707      -0.13978588      -0.01241970 </v>
   <v>      -0.47765629      -0.04877728      -0.00491044 </v>
   <v>      -0.09623600      -0.14002127       0.00935067 </v>
   <v>       0.23924940      -0.03852388      -0.00914908 </v>
   <v>      -0.45616572      -0.09620239      -0.00934297 </v>
   <v>       0.35585824      -0.04553406      -0.00154837 </v>
   <v>       0.07096118       0.02278245      -0.00645805 </v>
   <v>      -0.14149807      -0.14335400       0.01326436 </v>
   <v>       0.02233640      -0.04921165      -0.00134978 </v>
   <v>       0.42844557      -0.02235985      -0.00128032 </v>
   <v>       0.45183856      -0.07097228      -0.00638096 </v>
   <v>      -0.04878984      -0.07110729       0.00491281 </v>
   <v>       0.34098293      -0.00589921       0.00446478 </v>
   <v>      -0.49807789      -0.14147336      -0.01323512 </v>
   <v>       0.13976250       0.04725002      -0.01257635 </v>
   <v>       0.14484763       0.00367095      -0.01243949 </v>
  </varray>
 </structure>
 <varray name="primitive_index" >
  <v type="int" >        1 </v>
  <v type="int" >        2 </v>
  <v type="int" >        4 </v>
  <v type="int" >        3 </v>
  <v type="int" >       38 </v>
  <v type="int" >       61 </v>
  <v type="int" >       39 </v>
  <v type="int" >       67 </v>
  <v type="int" >       68 </v>
  <v type="int" >       27 </v>
  <v type="int" >       35 </v>
  <v type="int" >       34 </v>
  <v type="int" >       37 </v>
  <v type="int" >       75 </v>
  <v type="int" >        7 </v>
  <v type="int" >       78 </v>
  <v type="int" >       59 </v>
  <v type="int" >       41 </v>
  <v type="int" >       36 </v>
  <v type="int" >        6 </v>
  <v type="int" >       54 </v>
  <v type="int" >       40 </v>
  <v type="int" >        8 </v>
  <v type="int" >       60 </v>
  <v type="int" >       65 </v>
  <v type="int" >        5 </v>
  <v type="int" >        9 </v>
  <v type="int" >       21 </v>
  <v type="int" >       10 </v>
  <v type="int" >       62 </v>
  <v type="int" >       45 </v>
  <v type="int" >       43 </v>
  <v type="int" >       50 </v>
  <v type="int" >       48 </v>
  <v type="int" >       20 </v>
  <v type="int" >       63 </v>
  <v type="int" >       22 </v>
  <v type="int" >       70 </v>
  <v type="int" >       16 </v>
  <v type="int" >       46 </v>
  <v type="int" >       12 </v>
  <v type="int" >       53 </v>
  <v type="int" >       18 </v>
  <v type="int" >       69 </v>
  <v type="int" >       19 </v>
  <v type="int" >       23 </v>
  <v type="int" >       57 </v>
  <v type="int" >       13 </v>
  <v type="int" >       11 </v>
  <v type="int" >       58 </v>
  <v type="int" >       44 </v>
  <v type="int" >       24 </v>
  <v type="int" >       42 </v>
  <v type="int" >       14 </v>
  <v type="int" >       51 </v>
  <v type="int" >       64 </v>
  <v type="int" >       33 </v>
  <v type="int" >       17 </v>
  <v type="int" >       66 </v>
  <v type="int" >       72 </v>
  <v type="int" >       77 </v>
  <v type="int" >       32 </v>
  <v type="int" >       73 </v>
  <v type="int" >       25 </v>
  <v type="int" >       76 </v>
  <v type="int" >       49 </v>
  <v type="int" >       74 </v>
  <v type="int" >       29 </v>
  <v type="int" >       15 </v>
  <v type="int" >       56 </v>
  <v type="int" >       30 </v>
  <v type="int" >       28 </v>
  <v type="int" >       26 </v>
  <v type="int" >       31 </v>
  <v type="int" >       55 </v>
  <v type="int" >       52 </v>
  <v type="int" >       71 </v>
  <v type="int" >       47 </v>
 </varray>
 <kpoints>
  <generation param="listgenerated">
   <i name="divisions" type="int">      20 </i>
   <v>       0.00000000       0.00000000       0.00000000 </v>
   <v>       0.50000000       0.00000000       0.00000000 </v>
   <v>       0.33333333       0.33333333       0.00000000 </v>
   <v>       0.00000000       0.00000000       0.00000000 </v>
  </generation>
  <varray name="kpointlist" >
   <v>       0.00000000       0.00000000       0.00000000 </v>
   <v>       0.02631579       0.00000000       0.00000000 </v>
   <v>       0.05263158       0.00000000       0.00000000 </v>
   <v>       0.07894737       0.00000000       0.00000000 </v>
   <v>       0.10526316       0.00000000       0.00000000 </v>
   <v>       0.13157895       0.00000000       0.00000000 </v>
   <v>       0.15789474       0.00000000       0.00000000 </v>
   <v>       0.18421053       0.00000000       0.00000000 </v>
   <v>       0.21052632       0.00000000       0.00000000 </v>
   <v>       0.23684211       0.00000000       0.00000000 </v>
   <v>       0.26315789       0.00000000       0.00000000 </v>
   <v>       0.28947368       0.00000000       0.00000000 </v>
   <v>       0.31578947       0.00000000       0.00000000 </v>
   <v>       0.34210526       0.00000000       0.00000000 </v>
   <v>       0.36842105       0.00000000       0.00000000 </v>
   <v>       0.39473684       0.00000000       0.00000000 </v>
   <v>       0.42105263       0.00000000       0.00000000 </v>
   <v>       0.44736842       0.00000000       0.00000000 </v>
   <v>       0.47368421       0.00000000       0.00000000 </v>
   <v>       0.50000000       0.00000000       0.00000000 </v>
   <v>       0.50000000       0.00000000       0.00000000 </v>
   <v>       0.49122807       0.01754386       0.00000000 </v>
   <v>       0.48245614       0.03508772       0.00000000 </v>
   <v>       0.47368421       0.05263158       0.00000000 </v>
   <v>       0.46491228       0.07017544       0.00000000 </v>
   <v>       0.45614035       0.08771930       0.00000000 </v>
   <v>       0.44736842       0.10526316       0.00000000 </v>
   <v>       0.43859649       0.12280702       0.00000000 </v>
   <v>       0.42982456       0.14035088       0.00000000 </v>
   <v>       0.42105263       0.15789474       0.00000000 </v>
   <v>       0.41228070       0.17543860       0.00000000 </v>
   <v>       0.40350877       0.19298246       0.00000000 </v>
   <v>       0.39473684       0.21052632       0.00000000 </v>
   <v>       0.38596491       0.22807018       0.00000000 </v>
   <v>       0.37719298       0.24561404       0.00000000 </v>
   <v>       0.36842105       0.26315789       0.00000000 </v>
   <v>       0.35964912       0.28070175       0.00000000 </v>
   <v>       0.35087719       0.29824561       0.00000000 </v>
   <v>       0.34210526       0.31578947       0.00000000 </v>
   <v>       0.33333333       0.33333333       0.00000000 </v>
   <v>       0.33333333       0.33333333       0.00000000 </v>
   <v>       0.31578947       0.31578947       0.00000000 </v>
   <v>       0.29824561       0.29824561       0.00000000 </v>
   <v>       0.28070175       0.28070175       0.00000000 </v>
   <v>       0.26315789       0.26315789       0.00000000 </v>
   <v>       0.24561404       0.24561404       0.00000000 </v>
   <v>       0.22807018       0.22807018       0.00000000 </v>
   <v>       0.21052632       0.21052632       0.00000000 </v>
   <v>       0.19298246       0.19298246       0.00000000 </v>
   <v>       0.17543860       0.17543860       0.00000000 </v>
   <v>       0.15789474       0.15789474       0.00000000 </v>
   <v>       0.14035088       0.14035088       0.00000000 </v>
   <v>       0.12280702       0.12280702       0.00000000 </v>
   <v>       0.10526316       0.10526316       0.00000000 </v>
   <v>       0.08771930       0.08771930       0.00000000 </v>
   <v>       0.07017544       0.07017544       0.00000000 </v>
   <v>       0.05263158       0.05263158       0.00000000 </v>
   <v>       0.03508772       0.03508772       0.00000000 </v>
   <v>       0.01754386       0.01754386       0.00000000 </v>
   <v>       0.00000000       0.00000000       0.00000000 </v>
  </varray>
  <varray name="weights" >
   <v>       0.01666667 </v>
   <v>       0.01666667 </v>
   <v>       0.01666667 </v>
   <v>       0.01666667 </v>
   <v>       0.01666667 </v>
   <v>       0.01666667 </v>
   <v>       0.01666667 </v>
   <v>       0.01666667 </v>
   <v>       0.01666667 </v>
   <v>       0.01666667 </v>
   <v>       0.01666667 </v>
   <v>       0.01666667 </v>
   <v>       0.01666667 </v>
   <v>       0.01666667 </v>
   <v>       0.01666667 </v>
   <v>       0.01666667 </v>
   <v>       0.01666667 </v>
   <v>       0.01666667 </v>
   <v>       0.01666667 </v>
   <v>       0.01666667 </v>
   <v>       0.01666667 </v>
   <v>       0.01666667 </v>
   <v>       0.01666667 </v>
   <v>       0.01666667 </v>
   <v>       0.01666667 </v>
   <v>       0.01666667 </v>
   <v>       0.01666667 </v>
   <v>       0.01666667 </v>
   <v>       0.01666667 </v>
   <v>       0.01666667 </v>
   <v>       0.01666667 </v>
   <v>       0.01666667 </v>
   <v>       0.01666667 </v>
   <v>       0.01666667 </v>
   <v>       0.01666667 </v>
   <v>       0.01666667 </v>
   <v>       0.01666667 </v>
   <v>       0.01666667 </v>
   <v>       0.01666667 </v>
   <v>       0.01666667 </v>
   <v>       0.01666667 </v>
   <v>       0.01666667 </v>
   <v>       0.01666667 </v>
   <v>       0.01666667 </v>
   <v>       0.01666667 </v>
   <v>       0.01666667 </v>
   <v>       0.01666667 </v>
   <v>       0.01666667 </v>
   <v>       0.01666667 </v>
   <v>       0.01666667 </v>
   <v>       0.01666667 </v>
   <v>       0.01666667 </v>
   <v>       0.01666667 </v>
   <v>       0.01666667 </v>
   <v>       0.01666667 </v>
   <v>       0.01666667 </v>
   <v>       0.01666667 </v>
   <v>       0.01666667 </v>
   <v>       0.01666667 </v>
   <v>       0.01666667 </v>
  </varray>
 </kpoints>
 <parameters>
  <separator name="general" >
   <i type="string" name="SYSTEM">Simulation for cell shape cell volume r</i>
   <i type="logical" name="LCOMPAT"> F  </i>
  </separator>
  <separator name="electronic" >
   <i type="string" name="PREC">high</i>
   <i name="ENMAX">    500.00000000</i>
   <i name="ENAUG">    644.87300000</i>
   <i name="EDIFF">      0.00001000</i>
   <i type="int" name="IALGO">    38</i>
   <i type="int" name="IWAVPR">    10</i>
   <i type="int" name="NBANDS">   176</i>
   <i name="NELECT">    270.00000000</i>
   <i type="int" name="TURBO">     0</i>
   <i type="int" name="IRESTART">     0</i>
   <i type="int" name="NREBOOT">     0</i>
   <i type="int" name="NMIN">     0</i>
   <i name="EREF">      0.00000000</i>
   <separator name="electronic smearing" >
    <i type="int" name="ISMEAR">     0</i>
    <i name="SIGMA">      0.01000000</i>
    <i name="KSPACING">      0.50000000</i>
    <i type="logical" name="KGAMMA"> T  </i>
   </separator>
   <separator name="electronic projectors" >
    <i type="logical" name="LREAL"> T  </i>
    <v name="ROPT">     -0.00040000     -0.00040000     -0.00040000     -0.00040000</v>
    <i type="int" name="LMAXPAW">  -100</i>
    <i type="int" name="LMAXMIX">     2</i>
    <i type="logical" name="NLSPLINE"> F  </i>
   </separator>
   <separator name="electronic startup" >
    <i type="int" name="ISTART">     1</i>
    <i type="int" name="ICHARG">    11</i>
    <i type="int" name="INIWAV">     1</i>
   </separator>
   <separator name="electronic spin" >
    <i type="int" name="ISPIN">     1</i>
    <i type="logical" name="LNONCOLLINEAR"> F  </i>
    <v name="MAGMOM">      1.00000000      1.00000000      1.00000000      1.00000000      1.00000000      1.00000000      1.00000000      1.00000000      1.00000000      1.00000000      1.00000000      1.00000000      1.00000000      1.00000000      1.00000000      1.00000000      1.00000000      1.00000000      1.00000000      1.00000000
      1.00000000      1.00000000      1.00000000      1.00000000      1.00000000      1.00000000      1.00000000      1.00000000      1.00000000      1.00000000      1.00000000      1.00000000      1.00000000      1.00000000      1.00000000      1.00000000      1.00000000      1.00000000      1.00000000      1.00000000
      1.00000000      1.00000000      1.00000000      1.00000000      1.00000000      1.00000000      1.00000000      1.00000000      1.00000000      1.00000000      1.00000000      1.00000000      1.00000000      1.00000000      1.00000000      1.00000000      1.00000000      1.00000000      1.00000000      1.00000000
      1.00000000      1.00000000      1.00000000      1.00000000      1.00000000      1.00000000      1.00000000      1.00000000      1.00000000      1.00000000      1.00000000      1.00000000      1.00000000      1.00000000      1.00000000      1.00000000      1.00000000      1.00000000</v>
    <i name="NUPDOWN">     -1.00000000</i>
    <i type="logical" name="LSORBIT"> F  </i>
    <v name="SAXIS">      0.00000000      0.00000000      1.00000000</v>
    <i type="logical" name="LSPIRAL"> F  </i>
    <v name="QSPIRAL">      0.00000000      0.00000000      0.00000000</v>
    <i type="logical" name="LZEROZ"> F  </i>
   </separator>
   <separator name="electronic exchange-correlation" >
    <i type="logical" name="LASPH"> F  </i>
    <i type="logical" name="LMETAGGA"> F  </i>
   </separator>
   <separator name="electronic convergence" >
    <i type="int" name="NELM">   200</i>
    <i type="int" name="NELMDL">     0</i>
    <i type="int" name="NELMIN">     2</i>
    <i name="ENINI">    500.00000000</i>
    <separator name="electronic convergence detail" >
     <i type="logical" name="LDIAG"> T  </i>
     <i type="logical" name="LSUBROT"> F  </i>
     <i name="WEIMIN">      0.00000000</i>
     <i name="EBREAK">      0.00000001</i>
     <i name="DEPER">      0.30000000</i>
     <i type="int" name="NRMM">     4</i>
     <i name="TIME">      0.40000000</i>
    </separator>
   </separator>
   <separator name="electronic mixer" >
    <i name="AMIX">      0.40000000</i>
    <i name="BMIX">      1.00000000</i>
    <i name="AMIN">      0.10000000</i>
    <i name="AMIX_MAG">      1.60000000</i>
    <i name="BMIX_MAG">      1.00000000</i>
    <separator name="electronic mixer details" >
     <i type="int" name="IMIX">     4</i>
     <i type="logical" name="MIXFIRST"> F  </i>
     <i type="int" name="MAXMIX">   -45</i>
     <i name="WC">    100.00000000</i>
     <i type="int" name="INIMIX">     1</i>
     <i type="int" name="MIXPRE">     1</i>
     <i type="int" name="MREMOVE">     5</i>
    </separator>
   </separator>
   <separator name="electronic dipolcorrection" >
    <i type="logical" name="LDIPOL"> F  </i>
    <i type="logical" name="LMONO"> F  </i>
    <i type="int" name="IDIPOL">     0</i>
    <i name="EPSILON">      1.00000000</i>
    <v name="DIPOL">   -100.00000000   -100.00000000   -100.00000000</v>
    <i name="EFIELD">      0.00000000</i>
   </separator>
  </separator>
  <separator name="grids" >
   <i type="int" name="NGX">   168</i>
   <i type="int" name="NGY">   168</i>
   <i type="int" name="NGZ">   150</i>
   <i type="int" name="NGXF">   250</i>
   <i type="int" name="NGYF">   250</i>
   <i type="int" name="NGZF">   224</i>
   <i type="logical" name="ADDGRID"> F  </i>
  </separator>
  <separator name="ionic" >
   <i type="int" name="NSW">     0</i>
   <i type="int" name="IBRION">    -1</i>
   <i type="int" name="MDALGO">     0</i>
   <i type="int" name="ISIF">     2</i>
   <i name="PSTRESS">      0.00000000</i>
   <i name="EDIFFG">     -0.01000000</i>
   <i type="int" name="NFREE">     0</i>
   <i name="POTIM">      0.30000000</i>
   <i name="SMASS">     -3.00000000</i>
   <i name="SCALEE">      1.00000000</i>
  </separator>
  <separator name="ionic md" >
   <i name="TEBEG">      0.00010000</i>
   <i name="TEEND">      0.00010000</i>
   <i type="int" name="NBLOCK">     1</i>
   <i type="int" name="KBLOCK">     1</i>
   <i type="int" name="NPACO">   256</i>
   <i name="APACO">     16.00000000</i>
  </separator>
  <separator name="symmetry" >
   <i type="int" name="ISYM">     2</i>
   <i name="SYMPREC">      0.00001000</i>
  </separator>
  <separator name="dos" >
   <i type="int" name="LORBIT">     0</i>
   <v name="RWIGS">     -1.00000000     -1.00000000     -1.00000000     -1.00000000</v>
   <i type="int" name="NEDOS">   301</i>
   <i name="EMIN">     10.00000000</i>
   <i name="EMAX">    -10.00000000</i>
   <i name="EFERMI">      0.00000000</i>
  </separator>
  <separator name="writing" >
   <i type="int" name="NWRITE">     0</i>
   <i type="logical" name="LWAVE"> F  </i>
   <i type="logical" name="LDOWNSAMPLE"> F  </i>
   <i type="logical" name="LCHARG"> F  </i>
   <i type="logical" name="LPARD"> F  </i>
   <i type="logical" name="LVTOT"> F  </i>
   <i type="logical" name="LVHAR"> F  </i>
   <i type="logical" name="LELF"> F  </i>
   <i type="logical" name="LOPTICS"> F  </i>
   <v name="STM">      0.00000000      0.00000000      0.00000000      0.00000000      0.00000000      0.00000000      0.00000000</v>
  </separator>
  <separator name="performance" >
   <i type="int" name="NPAR">    16</i>
   <i type="int" name="NSIM">     4</i>
   <i type="int" name="NBLK">    -1</i>
   <i type="logical" name="LPLANE"> T  </i>
   <i type="logical" name="LSCALAPACK"> T  </i>
   <i type="logical" name="LSCAAWARE"> F  </i>
   <i type="logical" name="LSCALU"> F  </i>
   <i type="logical" name="LASYNC"> F  </i>
   <i type="logical" name="LORBITALREAL"> F  </i>
  </separator>
  <separator name="miscellaneous" >
   <i type="int" name="IDIOT">     3</i>
   <i type="int" name="ISPECIAL">     0</i>
   <i type="logical" name="LMUSIC"> F  </i>
   <v name="POMASS">     12.01100000      1.00000000     14.00100000     16.00000000</v>
   <v name="DARWINR">      0.00000000      0.00000000      0.00000000      0.00000000</v>
   <v name="DARWINV">      1.00000000      1.00000000      1.00000000      1.00000000</v>
   <i type="logical" name="LCORR"> T  </i>
  </separator>
  <i type="logical" name="GGA_COMPAT"> T  </i>
  <i type="logical" name="LBERRY"> F  </i>
  <i type="int" name="ICORELEVEL">     0</i>
  <i type="logical" name="LDAU"> F  </i>
  <i type="int" name="I_CONSTRAINED_M">     0</i>
  <separator name="electronic exchange-correlation" >
   <i type="string" name="GGA">PE</i>
   <i type="int" name="VOSKOWN">     0</i>
   <i type="logical" name="LHFCALC"> F  </i>
   <i type="string" name="PRECFOCK"></i>
   <i type="logical" name="LSYMGRAD"> F  </i>
   <i type="logical" name="LHFONE"> F  </i>
   <i type="logical" name="LRHFCALC"> F  </i>
   <i type="logical" name="LTHOMAS"> F  </i>
   <i type="logical" name="LMODELHF"> F  </i>
   <i name="ENCUT4O">     -1.00000000</i>
   <i type="int" name="EXXOEP">     0</i>
   <i type="int" name="FOURORBIT">     0</i>
   <i name="AEXX">      0.00000000</i>
   <i name="HFALPHA">      0.00000000</i>
   <i name="MCALPHA">      0.00000000</i>
   <i name="ALDAX">      1.00000000</i>
   <i name="AGGAX">      1.00000000</i>
   <i name="ALDAC">      1.00000000</i>
   <i name="AGGAC">      1.00000000</i>
   <i type="int" name="NKREDX">     1</i>
   <i type="int" name="NKREDY">     1</i>
   <i type="int" name="NKREDZ">     1</i>
   <i type="logical" name="SHIFTRED"> F  </i>
   <i type="logical" name="ODDONLY"> F  </i>
   <i type="logical" name="EVENONLY"> F  </i>
   <i type="int" name="LMAXFOCK">     0</i>
   <i type="int" name="NMAXFOCKAE">     0</i>
   <i type="logical" name="LFOCKAEDFT"> F  </i>
   <i name="HFSCREEN">      0.00000000</i>
   <i name="HFSCREENC">      0.00000000</i>
   <i type="int" name="NBANDSGWLOW">     0</i>
  </separator>
  <separator name="vdW DFT" >
   <i type="logical" name="LUSE_VDW"> F  </i>
   <i name="Zab_VDW">     -0.84910000</i>
   <i name="PARAM1">      0.12340000</i>
   <i name="PARAM2">      1.00000000</i>
   <i name="PARAM3">      0.00000000</i>
  </separator>
  <separator name="model GW" >
   <i type="int" name="MODEL_GW">     0</i>
   <i name="MODEL_EPS0">     66.58559039</i>
   <i name="MODEL_ALPHA">      1.00000000</i>
  </separator>
  <separator name="linear response parameters" >
   <i type="logical" name="LEPSILON"> F  </i>
   <i type="logical" name="LRPA"> F  </i>
   <i type="logical" name="LNABLA"> F  </i>
   <i type="logical" name="LVEL"> F  </i>
   <i type="int" name="KINTER">     0</i>
   <i name="CSHIFT">      0.10000000</i>
   <i name="OMEGAMAX">     -1.00000000</i>
   <i name="DEG_THRESHOLD">      0.00200000</i>
   <i name="RTIME">     -0.10000000</i>
   <i name="WPLASMAI">      0.00000000</i>
   <v name="DFIELD">      0.00000000      0.00000000      0.00000000</v>
   <v name="WPLASMA">      0.00000000      0.00000000      0.00000000      0.00000000      0.00000000      0.00000000      0.00000000      0.00000000      0.00000000</v>
  </separator>
  <separator name="orbital magnetization" >
   <i type="logical" name="NUCIND"> F  </i>
   <v name="MAGPOS">      0.00000000      0.00000000      0.00000000</v>
   <i type="logical" name="LNICSALL"> T  </i>
   <i type="logical" name="ORBITALMAG"> F  </i>
   <i type="logical" name="LMAGBLOCH"> F  </i>
   <i type="logical" name="LCHIMAG"> F  </i>
   <i type="logical" name="LGAUGE"> T  </i>
   <i type="int" name="MAGATOM">     0</i>
   <v name="MAGDIPOL">      0.00000000      0.00000000      0.00000000</v>
   <v name="AVECCONST">      0.00000000      0.00000000      0.00000000</v>
  </separator>
  <separator name="response functions" >
   <i type="logical" name="LADDER"> F  </i>
   <i type="logical" name="LRPAFORCE"> F  </i>
   <i type="logical" name="LFXC"> F  </i>
   <i type="logical" name="LHARTREE"> T  </i>
   <i type="int" name="IBSE">     0</i>
   <v type="int" name="KPOINT">    -1     0     0     0</v>
   <i type="logical" name="LTCTE"> F  </i>
   <i type="logical" name="LTETE"> F  </i>
   <i type="logical" name="LTRIPLET"> F  </i>
   <i type="logical" name="LFXCEPS"> F  </i>
   <i type="logical" name="LFXHEG"> F  </i>
   <i type="int" name="NATURALO">     2</i>
   <i type="logical" name="L2ORDER"> F  </i>
   <i type="logical" name="LMP2LT"> F  </i>
   <i type="logical" name="LUSEW"> F  </i>
   <i name="ENCUTGW">     -2.00000000</i>
   <i name="ENCUTGWSOFT">     -2.00000000</i>
   <i name="ENCUTLF">     -1.00000000</i>
   <i type="int" name="LMAXMP2">    -1</i>
   <i name="SCISSOR">      0.00000000</i>
   <i type="int" name="NOMEGA">     0</i>
   <i type="int" name="NOMEGAR">     0</i>
   <i type="int" name="NBANDSGW">    -1</i>
   <i type="int" name="NBANDSO">    -1</i>
   <i type="int" name="NBANDSV">    -1</i>
   <i type="int" name="NELM">   200</i>
   <i type="int" name="NELMHF">     1</i>
   <i type="int" name="DIM">     3</i>
   <i type="int" name="ANTIRES">     0</i>
   <i name="OMEGAMAX">    -30.00000000</i>
   <i name="OMEGAMIN">    -30.00000000</i>
   <i name="OMEGATL">   -200.00000000</i>
   <i type="int" name="OMEGAGRID">   140</i>
   <i name="CSHIFT">     -0.10000000</i>
   <i type="logical" name="SELFENERGY"> F  </i>
   <i type="logical" name="LSPECTRAL"> F  </i>
   <i type="logical" name="LSPECTRALGW"> F  </i>
   <i type="logical" name="LSINGLES"> F  </i>
   <i type="logical" name="LFERMIGW"> F  </i>
   <i type="logical" name="ODDONLYGW"> F  </i>
   <i type="logical" name="EVENONLYGW"> F  </i>
   <i type="int" name="NKREDLFX">     1</i>
   <i type="int" name="NKREDLFY">     1</i>
   <i type="int" name="NKREDLFZ">     1</i>
   <i type="int" name="MAXMEM">  2800</i>
   <i type="int" name="TELESCOPE">     0</i>
   <i type="int" name="TAUPAR">     1</i>
   <i type="int" name="OMEGAPAR">    -1</i>
   <i name="LAMBDA">      1.00000000</i>
  </separator>
  <separator name="External order field" >
   <i name="OFIELD_KAPPA">      0.00000000</i>
   <v name="OFIELD_K">      0.00000000      0.00000000      0.00000000</v>
   <i name="OFIELD_Q6_NEAR">      0.00000000</i>
   <i name="OFIELD_Q6_FAR">      0.00000000</i>
   <i name="OFIELD_A">      0.00000000</i>
  </separator>
  <separator name="solvation model" >
   <i type="logical" name="LSOL"> F  </i>
  </separator>
 </parameters>
 <atominfo>
  <atoms>      78 </atoms>
  <types>       4 </types>
  <array name="atoms" >
   <dimension dim="1">ion</dimension>
   <field type="string">element</field>
   <field type="int">atomtype</field>
   <set>
    <rc><c>C </c><c>   1</c></rc>
    <rc><c>C </c><c>   1</c></rc>
    <rc><c>C </c><c>   1</c></rc>
    <rc><c>C </c><c>   1</c></rc>
    <rc><c>C </c><c>   1</c></rc>
    <rc><c>C </c><c>   1</c></rc>
    <rc><c>C </c><c>   1</c></rc>
    <rc><c>C </c><c>   1</c></rc>
    <rc><c>C </c><c>   1</c></rc>
    <rc><c>C </c><c>   1</c></rc>
    <rc><c>C </c><c>   1</c></rc>
    <rc><c>C </c><c>   1</c></rc>
    <rc><c>C </c><c>   1</c></rc>
    <rc><c>C </c><c>   1</c></rc>
    <rc><c>C </c><c>   1</c></rc>
    <rc><c>C </c><c>   1</c></rc>
    <rc><c>C </c><c>   1</c></rc>
    <rc><c>C </c><c>   1</c></rc>
    <rc><c>C </c><c>   1</c></rc>
    <rc><c>C </c><c>   1</c></rc>
    <rc><c>C </c><c>   1</c></rc>
    <rc><c>C </c><c>   1</c></rc>
    <rc><c>C </c><c>   1</c></rc>
    <rc><c>C </c><c>   1</c></rc>
    <rc><c>C </c><c>   1</c></rc>
    <rc><c>C </c><c>   1</c></rc>
    <rc><c>C </c><c>   1</c></rc>
    <rc><c>C </c><c>   1</c></rc>
    <rc><c>C </c><c>   1</c></rc>
    <rc><c>C </c><c>   1</c></rc>
    <rc><c>C </c><c>   1</c></rc>
    <rc><c>C </c><c>   1</c></rc>
    <rc><c>C </c><c>   1</c></rc>
    <rc><c>C </c><c>   1</c></rc>
    <rc><c>C </c><c>   1</c></rc>
    <rc><c>C </c><c>   1</c></rc>
    <rc><c>H </c><c>   2</c></rc>
    <rc><c>H </c><c>   2</c></rc>
    <rc><c>H </c><c>   2</c></rc>
    <rc><c>H </c><c>   2</c></rc>
    <rc><c>H </c><c>   2</c></rc>
    <rc><c>H </c><c>   2</c></rc>
    <rc><c>H </c><c>   2</c></rc>
    <rc><c>H </c><c>   2</c></rc>
    <rc><c>H </c><c>   2</c></rc>
    <rc><c>H </c><c>   2</c></rc>
    <rc><c>H </c><c>   2</c></rc>
    <rc><c>H </c><c>   2</c></rc>
    <rc><c>H </c><c>   2</c></rc>
    <rc><c>H </c><c>   2</c></rc>
    <rc><c>H </c><c>   2</c></rc>
    <rc><c>H </c><c>   2</c></rc>
    <rc><c>H </c><c>   2</c></rc>
    <rc><c>H </c><c>   2</c></rc>
    <rc><c>H </c><c>   2</c></rc>
    <rc><c>H </c><c>   2</c></rc>
    <rc><c>H </c><c>   2</c></rc>
    <rc><c>H </c><c>   2</c></rc>
    <rc><c>H </c><c>   2</c></rc>
    <rc><c>H </c><c>   2</c></rc>
    <rc><c>N </c><c>   3</c></rc>
    <rc><c>N </c><c>   3</c></rc>
    <rc><c>N </c><c>   3</c></rc>
    <rc><c>N </c><c>   3</c></rc>
    <rc><c>N </c><c>   3</c></rc>
    <rc><c>N </c><c>   3</c></rc>
    <rc><c>O </c><c>   4</c></rc>
    <rc><c>O </c><c>   4</c></rc>
    <rc><c>O </c><c>   4</c></rc>
    <rc><c>O </c><c>   4</c></rc>
    <rc><c>O </c><c>   4</c></rc>
    <rc><c>O </c><c>   4</c></rc>
    <rc><c>O </c><c>   4</c></rc>
    <rc><c>O </c><c>   4</c></rc>
    <rc><c>O </c><c>   4</c></rc>
    <rc><c>O </c><c>   4</c></rc>
    <rc><c>O </c><c>   4</c></rc>
    <rc><c>O </c><c>   4</c></rc>
   </set>
  </array>
  <array name="atomtypes" >
   <dimension dim="1">type</dimension>
   <field type="int">atomspertype</field>
   <field type="string">element</field>
   <field>mass</field>
   <field>valence</field>
   <field type="string">pseudopotential</field>
   <set>
    <rc><c>  36</c><c>C </c><c>     12.01100000</c><c>      4.00000000</c><c>  PAW_PBE C 08Apr2002                   </c></rc>
    <rc><c>  24</c><c>H </c><c>      1.00000000</c><c>      1.00000000</c><c>  PAW_PBE H 15Jun2001                   </c></rc>
    <rc><c>   6</c><c>N </c><c>     14.00100000</c><c>      5.00000000</c><c>  PAW_PBE N 08Apr2002                   </c></rc>
    <rc><c>  12</c><c>O </c><c>     16.00000000</c><c>      6.00000000</c><c>  PAW_PBE O 08Apr2002                   </c></rc>
   </set>
  </array>
 </atominfo>
 <structure name="initialpos" >
  <crystal>
   <varray name="basis" >
    <v>      22.35440346      -0.00005095       0.00000000 </v>
    <v>     -11.17724594      19.36114769       0.00000000 </v>
    <v>       0.00000000       0.00000000      20.00000000 </v>
   </varray>
   <i name="volume">   8656.12675094 </i>
   <varray name="rec_basis" >
    <v>       0.04473397       0.02582505       0.00000000 </v>
    <v>       0.00000012       0.05164990       0.00000000 </v>
    <v>       0.00000000       0.00000000       0.05000000 </v>
   </varray>
  </crystal>
  <varray name="positions" >
   <v>       0.95081327       0.42845776       0.00128211 </v>
   <v>       0.92888251       0.47766625       0.99509317 </v>
   <v>       0.90139814       0.35588255       0.00155541 </v>
   <v>       0.02281473       0.45183381       0.00637750 </v>
   <v>       0.76094381       0.13642176       0.00804302 </v>
   <v>       0.80307684       0.20840879       0.00828245 </v>
   <v>       0.87548635       0.23908385       0.00803003 </v>
   <v>       0.90534587       0.19695513       0.00834217 </v>
   <v>       0.86361511       0.12455547       0.00810352 </v>
   <v>       0.79162261       0.09469299       0.00835855 </v>
   <v>       0.57155443       0.02235985       0.00128032 </v>
   <v>       0.64414176       0.04553406       0.00154837 </v>
   <v>       0.97766360       0.04921165       0.00134978 </v>
   <v>       0.04878984       0.07110729       0.99508719 </v>
   <v>       0.07096118       0.02278245       0.99354195 </v>
   <v>       0.95451261       0.09864024       0.00163638 </v>
   <v>       0.47765629       0.04877728       0.00491044 </v>
   <v>       0.54816144       0.07097228       0.00638096 </v>
   <v>       0.23905619       0.86357824       0.99195698 </v>
   <v>       0.19692316       0.79159121       0.99171755 </v>
   <v>       0.12451365       0.76091615       0.99196997 </v>
   <v>       0.09465413       0.80304487       0.99165783 </v>
   <v>       0.13638489       0.87544453       0.99189648 </v>
   <v>       0.20837739       0.90530701       0.99164145 </v>
   <v>       0.52234371       0.95122272       0.99508956 </v>
   <v>       0.45183856       0.92902772       0.99361904 </v>
   <v>       0.97718527       0.54816619       0.99362250 </v>
   <v>       0.42844557       0.97764015       0.99871968 </v>
   <v>       0.35585824       0.95446594       0.99845163 </v>
   <v>       0.02233640       0.95078835       0.99865022 </v>
   <v>       0.95121016       0.92889271       0.00491281 </v>
   <v>       0.92903882       0.97721755       0.00645805 </v>
   <v>       0.04548739       0.90135976       0.99836362 </v>
   <v>       0.04918673       0.57154224       0.99871789 </v>
   <v>       0.07111749       0.52233375       0.00490683 </v>
   <v>       0.09860186       0.64411745       0.99844459 </v>
   <v>       0.85660122       0.49808845       0.98676753 </v>
   <v>       0.84688636       0.34101128       0.99558076 </v>
   <v>       0.00374019       0.35884349       0.01228808 </v>
   <v>       0.96151293       0.22224109       0.00911004 </v>
   <v>       0.77777534       0.23928083       0.00899402 </v>
   <v>       0.14149807       0.14335400       0.98673564 </v>
   <v>       0.99416095       0.15313885       0.99559212 </v>
   <v>       0.49807789       0.14147336       0.01323512 </v>
   <v>       0.64115431       0.14488747       0.01229925 </v>
   <v>       0.76075060       0.03852388       0.00914908 </v>
   <v>       0.14484763       0.00367095       0.98756051 </v>
   <v>       0.03848707       0.77775891       0.99088996 </v>
   <v>       0.23924940       0.96147612       0.99085092 </v>
   <v>       0.22222466       0.76071917       0.99100598 </v>
   <v>       0.35884569       0.85511253       0.98770075 </v>
   <v>       0.50192211       0.85852664       0.98676488 </v>
   <v>       0.65901707       0.00589921       0.99553522 </v>
   <v>       0.99625981       0.64115651       0.98771192 </v>
   <v>       0.34098293       0.99410079       0.00446478 </v>
   <v>       0.85850193       0.85664600       0.01326436 </v>
   <v>       0.85515237       0.99632905       0.01243949 </v>
   <v>       0.00583905       0.84686115       0.00440788 </v>
   <v>       0.14339878       0.50191155       0.01323247 </v>
   <v>       0.15311364       0.65898872       0.00441924 </v>
   <v>       0.92163969       0.31058407       0.00790277 </v>
   <v>       0.68943950       0.11106790       0.00794362 </v>
   <v>       0.88897643       0.07841512       0.00804569 </v>
   <v>       0.31056050       0.88893210       0.99205638 </v>
   <v>       0.07836031       0.68941593       0.99209723 </v>
   <v>       0.11102357       0.92158488       0.99195431 </v>
   <v>       0.85995914       0.45617202       0.99065138 </v>
   <v>       0.04731180       0.40751449       0.01241864 </v>
   <v>       0.09623600       0.14002127       0.99064933 </v>
   <v>       0.59248293       0.13978588       0.01241970 </v>
   <v>       0.13976250       0.04725002       0.98742365 </v>
   <v>       0.45616572       0.09620239       0.00934297 </v>
   <v>       0.40751707       0.86021412       0.98758030 </v>
   <v>       0.54383428       0.90379761       0.99065703 </v>
   <v>       0.95268820       0.59248551       0.98758136 </v>
   <v>       0.90376400       0.85997873       0.00935067 </v>
   <v>       0.86023750       0.95274998       0.01257635 </v>
   <v>       0.14004086       0.54382798       0.00934862 </v>
  </varray>
 </structure>
 <calculation>
  <scstep>
   <time name="dav">  118.12  119.17</time>
   <time name="total">  118.28  119.34</time>
   <energy>
    <i name="alphaZ">     37.58586241 </i>
    <i name="ewald">  30608.47474821 </i>
    <i name="hartreedc"> -40913.46516877 </i>
    <i name="XCdc">   1025.94847725 </i>
    <i name="pawpsdc">  24446.67551842 </i>
    <i name="pawaedc"> -24504.82908393 </i>
    <i name="eentropy">     -0.00000000 </i>
    <i name="bandstr">  -3614.03324689 </i>
    <i name="atom">  12372.50380916 </i>
    <i name="e_fr_energy">   -541.13908414 </i>
    <i name="e_wo_entrp">   -541.13908414 </i>
    <i name="e_0_energy">   -541.13908414 </i>
   </energy>
  </scstep>
  <scstep>
   <time name="dav">  134.80  136.02</time>
   <time name="total">  134.81  136.03</time>
   <energy>
    <i name="e_fr_energy">   -541.80384706 </i>
    <i name="e_wo_entrp">   -541.80384706 </i>
    <i name="e_0_energy">   -541.80384706 </i>
   </energy>
  </scstep>
  <scstep>
   <time name="dav">  152.34  153.68</time>
   <time name="total">  152.35  153.69</time>
   <energy>
    <i name="e_fr_energy">   -541.82151991 </i>
    <i name="e_wo_entrp">   -541.82151991 </i>
    <i name="e_0_energy">   -541.82151991 </i>
   </energy>
  </scstep>
  <scstep>
   <time name="dav">  132.48  133.65</time>
   <time name="total">  132.48  133.65</time>
   <energy>
    <i name="e_fr_energy">   -541.82178174 </i>
    <i name="e_wo_entrp">   -541.82178174 </i>
    <i name="e_0_energy">   -541.82178174 </i>
   </energy>
  </scstep>
  <scstep>
   <time name="dav">  130.50  131.62</time>
   <time name="total">  130.50  131.63</time>
   <energy>
    <i name="alphaZ">     37.58586241 </i>
    <i name="ewald">  30608.47474821 </i>
    <i name="hartreedc"> -40913.46516877 </i>
    <i name="XCdc">   1025.94847725 </i>
    <i name="pawpsdc">  24446.67551842 </i>
    <i name="pawaedc"> -24504.82908393 </i>
    <i name="eentropy">     -0.00000000 </i>
    <i name="bandstr">  -3614.71595433 </i>
    <i name="atom">  12372.50380916 </i>
    <i name="e_fr_energy">   -541.82179158 </i>
    <i name="e_wo_entrp">   -541.82179158 </i>
    <i name="e_0_energy">   -541.82179158 </i>
   </energy>
  </scstep>
  <structure>
   <crystal>
    <varray name="basis" >
     <v>      22.35440346      -0.00005095       0.00000000 </v>
     <v>     -11.17724594      19.36114769       0.00000000 </v>
     <v>       0.00000000       0.00000000      20.00000000 </v>
    </varray>
    <i name="volume">   8656.12675094 </i>
    <varray name="rec_basis" >
     <v>       0.04473397       0.02582505       0.00000000 </v>
     <v>       0.00000012       0.05164990       0.00000000 </v>
     <v>       0.00000000       0.00000000       0.05000000 </v>
    </varray>
   </crystal>
   <varray name="positions" >
    <v>       0.95081327       0.42845776       0.00128211 </v>
    <v>       0.92888251       0.47766625       0.99509317 </v>
    <v>       0.90139814       0.35588255       0.00155541 </v>
    <v>       0.02281473       0.45183381       0.00637750 </v>
    <v>       0.76094381       0.13642176       0.00804302 </v>
    <v>       0.80307684       0.20840879       0.00828245 </v>
    <v>       0.87548635       0.23908385       0.00803003 </v>
    <v>       0.90534587       0.19695513       0.00834217 </v>
    <v>       0.86361511       0.12455547       0.00810352 </v>
    <v>       0.79162261       0.09469299       0.00835855 </v>
    <v>       0.57155443       0.02235985       0.00128032 </v>
    <v>       0.64414176       0.04553406       0.00154837 </v>
    <v>       0.97766360       0.04921165       0.00134978 </v>
    <v>       0.04878984       0.07110729       0.99508719 </v>
    <v>       0.07096118       0.02278245       0.99354195 </v>
    <v>       0.95451261       0.09864024       0.00163638 </v>
    <v>       0.47765629       0.04877728       0.00491044 </v>
    <v>       0.54816144       0.07097228       0.00638096 </v>
    <v>       0.23905619       0.86357824       0.99195698 </v>
    <v>       0.19692316       0.79159121       0.99171755 </v>
    <v>       0.12451365       0.76091615       0.99196997 </v>
    <v>       0.09465413       0.80304487       0.99165783 </v>
    <v>       0.13638489       0.87544453       0.99189648 </v>
    <v>       0.20837739       0.90530701       0.99164145 </v>
    <v>       0.52234371       0.95122272       0.99508956 </v>
    <v>       0.45183856       0.92902772       0.99361904 </v>
    <v>       0.97718527       0.54816619       0.99362250 </v>
    <v>       0.42844557       0.97764015       0.99871968 </v>
    <v>       0.35585824       0.95446594       0.99845163 </v>
    <v>       0.02233640       0.95078835       0.99865022 </v>
    <v>       0.95121016       0.92889271       0.00491281 </v>
    <v>       0.92903882       0.97721755       0.00645805 </v>
    <v>       0.04548739       0.90135976       0.99836362 </v>
    <v>       0.04918673       0.57154224       0.99871789 </v>
    <v>       0.07111749       0.52233375       0.00490683 </v>
    <v>       0.09860186       0.64411745       0.99844459 </v>
    <v>       0.85660122       0.49808845       0.98676753 </v>
    <v>       0.84688636       0.34101128       0.99558076 </v>
    <v>       0.00374019       0.35884349       0.01228808 </v>
    <v>       0.96151293       0.22224109       0.00911004 </v>
    <v>       0.77777534       0.23928083       0.00899402 </v>
    <v>       0.14149807       0.14335400       0.98673564 </v>
    <v>       0.99416095       0.15313885       0.99559212 </v>
    <v>       0.49807789       0.14147336       0.01323512 </v>
    <v>       0.64115431       0.14488747       0.01229925 </v>
    <v>       0.76075060       0.03852388       0.00914908 </v>
    <v>       0.14484763       0.00367095       0.98756051 </v>
    <v>       0.03848707       0.77775891       0.99088996 </v>
    <v>       0.23924940       0.96147612       0.99085092 </v>
    <v>       0.22222466       0.76071917       0.99100598 </v>
    <v>       0.35884569       0.85511253       0.98770075 </v>
    <v>       0.50192211       0.85852664       0.98676488 </v>
    <v>       0.65901707       0.00589921       0.99553522 </v>
    <v>       0.99625981       0.64115651       0.98771192 </v>
    <v>       0.34098293       0.99410079       0.00446478 </v>
    <v>       0.85850193       0.85664600       0.01326436 </v>
    <v>       0.85515237       0.99632905       0.01243949 </v>
    <v>       0.00583905       0.84686115       0.00440788 </v>
    <v>       0.14339878       0.50191155       0.01323247 </v>
    <v>       0.15311364       0.65898872       0.00441924 </v>
    <v>       0.92163969       0.31058407       0.00790277 </v>
    <v>       0.68943950       0.11106790       0.00794362 </v>
    <v>       0.88897643       0.07841512       0.00804569 </v>
    <v>       0.31056050       0.88893210       0.99205638 </v>
    <v>       0.07836031       0.68941593       0.99209723 </v>
    <v>       0.11102357       0.92158488       0.99195431 </v>
    <v>       0.85995914       0.45617202       0.99065138 </v>
    <v>       0.04731180       0.40751449       0.01241864 </v>
    <v>       0.09623600       0.14002127       0.99064933 </v>
    <v>       0.59248293       0.13978588       0.01241970 </v>
    <v>       0.13976250       0.04725002       0.98742365 </v>
    <v>       0.45616572       0.09620239       0.00934297 </v>
    <v>       0.40751707       0.86021412       0.98758030 </v>
    <v>       0.54383428       0.90379761       0.99065703 </v>
    <v>       0.95268820       0.59248551       0.98758136 </v>
    <v>       0.90376400       0.85997873       0.00935067 </v>
    <v>       0.86023750       0.95274998       0.01257635 </v>
    <v>       0.14004086       0.54382798       0.00934862 </v>
   </varray>
  </structure>
  <varray name="forces" >
   <v>      -0.00390104       0.00129273      -0.00071117 </v>
   <v>      -0.00082934      -0.00259830      -0.00121840 </v>
   <v>      -0.00109453      -0.00134409      -0.00116391 </v>
   <v>       0.00183573       0.00251329       0.00130967 </v>
   <v>       0.00536912      -0.00229122       0.00169718 </v>
   <v>       0.00100638       0.00011103       0.00018672 </v>
   <v>      -0.00568741       0.00083189      -0.00065571 </v>
   <v>      -0.00480697      -0.00239452       0.00087772 </v>
   <v>       0.00112715       0.00081638       0.00062415 </v>
   <v>      -0.00288992       0.00261678       0.00151848 </v>
   <v>      -0.00148679      -0.00256115       0.00012529 </v>
   <v>       0.00119500      -0.00078052       0.00060874 </v>
   <v>       0.00327425       0.00175854      -0.00043921 </v>
   <v>      -0.00156716       0.00348910      -0.00108202 </v>
   <v>      -0.00109387       0.00268252      -0.00164918 </v>
   <v>      -0.00065503      -0.00079335      -0.00055823 </v>
   <v>       0.00015695      -0.00341355       0.00040447 </v>
   <v>       0.00007850       0.00018401       0.00107028 </v>
   <v>      -0.00536912       0.00229122      -0.00169718 </v>
   <v>      -0.00100638      -0.00011103      -0.00018672 </v>
   <v>       0.00568741      -0.00083189       0.00065571 </v>
   <v>       0.00480697       0.00239452      -0.00087772 </v>
   <v>      -0.00112715      -0.00081638      -0.00062415 </v>
   <v>       0.00288992      -0.00261678      -0.00151848 </v>
   <v>      -0.00015695       0.00341355      -0.00040447 </v>
   <v>      -0.00007850      -0.00018401      -0.00107028 </v>
   <v>      -0.00183573      -0.00251329      -0.00130967 </v>
   <v>       0.00148679       0.00256115      -0.00012529 </v>
   <v>      -0.00119500       0.00078052      -0.00060874 </v>
   <v>      -0.00327425      -0.00175854       0.00043921 </v>
   <v>       0.00156716      -0.00348910       0.00108202 </v>
   <v>       0.00109387      -0.00268252       0.00164918 </v>
   <v>       0.00065503       0.00079335       0.00055823 </v>
   <v>       0.00390104      -0.00129273       0.00071117 </v>
   <v>       0.00082934       0.00259830       0.00121840 </v>
   <v>       0.00109453       0.00134409       0.00116391 </v>
   <v>       0.00136136      -0.00102004      -0.00382218 </v>
   <v>      -0.00520004       0.00036849      -0.00144054 </v>
   <v>      -0.00166714       0.00277975       0.00106844 </v>
   <v>       0.00401476       0.00426128       0.00197673 </v>
   <v>      -0.00093212      -0.00045369       0.00147168 </v>
   <v>       0.00025979      -0.00027352      -0.00432611 </v>
   <v>       0.00091239       0.00267853      -0.00152752 </v>
   <v>       0.00153255       0.00084264       0.00400567 </v>
   <v>       0.00006624      -0.00182896       0.00195560 </v>
   <v>       0.00148341      -0.00059052       0.00176701 </v>
   <v>      -0.00114332      -0.00020084      -0.00212864 </v>
   <v>      -0.00401476      -0.00426128      -0.00197673 </v>
   <v>      -0.00148341       0.00059052      -0.00176701 </v>
   <v>       0.00093212       0.00045369      -0.00147168 </v>
   <v>      -0.00006624       0.00182896      -0.00195560 </v>
   <v>      -0.00153255      -0.00084264      -0.00400567 </v>
   <v>       0.00144113      -0.00288137      -0.00212161 </v>
   <v>       0.00166714      -0.00277975      -0.00106844 </v>
   <v>      -0.00144113       0.00288137       0.00212161 </v>
   <v>      -0.00025979       0.00027352       0.00432611 </v>
   <v>       0.00114332       0.00020084       0.00212864 </v>
   <v>      -0.00091239      -0.00267853       0.00152752 </v>
   <v>      -0.00136136       0.00102004       0.00382218 </v>
   <v>       0.00520004      -0.00036849       0.00144054 </v>
   <v>       0.00215167       0.00114085      -0.00097874 </v>
   <v>      -0.00373272      -0.00070433       0.00187300 </v>
   <v>      -0.00017951      -0.00208736       0.00076837 </v>
   <v>       0.00373272       0.00070433      -0.00187300 </v>
   <v>      -0.00215167      -0.00114085       0.00097874 </v>
   <v>       0.00017951       0.00208736      -0.00076837 </v>
   <v>       0.00060289       0.00048495      -0.00346497 </v>
   <v>       0.00007719      -0.00090609       0.00264179 </v>
   <v>      -0.00211299      -0.00298741      -0.00296217 </v>
   <v>      -0.00137963      -0.00108338       0.00240821 </v>
   <v>       0.00029371       0.00010966      -0.00347711 </v>
   <v>      -0.00324310      -0.00248817       0.00313687 </v>
   <v>       0.00137963       0.00108338      -0.00240821 </v>
   <v>       0.00324310       0.00248817      -0.00313687 </v>
   <v>      -0.00007719       0.00090609      -0.00264179 </v>
   <v>       0.00211299       0.00298741       0.00296217 </v>
   <v>      -0.00029371      -0.00010966       0.00347711 </v>
   <v>      -0.00060289      -0.00048495       0.00346497 </v>
  </varray>
  <varray name="stress" >
   <v>       0.00396124       0.00059340      -0.00165573 </v>
   <v>       0.00059340       0.00079768       0.00089526 </v>
   <v>      -0.00165573       0.00089527      -0.25000824 </v>
  </varray>
  <energy>
   <i name="e_fr_energy">   -543.36711778 </i>
   <i name="e_wo_entrp">   -543.36711778 </i>
   <i name="e_0_energy">     -0.00000000 </i>
  </energy>
  <time name="totalsc">  782.13  789.31</time>
  <eigenvalues>
   <array>
    <dimension dim="1">band</dimension>
    <dimension dim="2">kpoint</dimension>
    <dimension dim="3">spin</dimension>
    <field>eigene</field>
    <field>occ</field>
    <set>
     <set comment="spin 1">
      <set comment="kpoint 1">
       <r>  -26.7096    1.0000 </r>
       <r>  -26.7087    1.0000 </r>
       <r>  -26.7078    1.0000 </r>
       <r>  -26.6333    1.0000 </r>
       <r>  -26.6322    1.0000 </r>
       <r>  -26.6314    1.0000 </r>
       <r>  -25.8536    1.0000 </r>
       <r>  -25.8528    1.0000 </r>
       <r>  -25.8518    1.0000 </r>
       <r>  -25.8098    1.0000 </r>
       <r>  -25.8093    1.0000 </r>
       <r>  -25.8082    1.0000 </r>
       <r>  -23.6762    1.0000 </r>
       <r>  -23.6677    1.0000 </r>
       <r>  -23.4210    1.0000 </r>
       <r>  -23.4208    1.0000 </r>
       <r>  -23.4093    1.0000 </r>
       <r>  -23.4091    1.0000 </r>
       <r>  -21.2954    1.0000 </r>
       <r>  -21.0611    1.0000 </r>
       <r>  -21.0111    1.0000 </r>
       <r>  -21.0110    1.0000 </r>
       <r>  -20.6177    1.0000 </r>
       <r>  -19.6457    1.0000 </r>
       <r>  -19.6454    1.0000 </r>
       <r>  -18.9951    1.0000 </r>
       <r>  -18.8610    1.0000 </r>
       <r>  -18.8609    1.0000 </r>
       <r>  -18.1558    1.0000 </r>
       <r>  -18.1555    1.0000 </r>
       <r>  -17.7497    1.0000 </r>
       <r>  -17.7286    1.0000 </r>
       <r>  -17.7282    1.0000 </r>
       <r>  -17.1758    1.0000 </r>
       <r>  -16.9892    1.0000 </r>
       <r>  -16.9892    1.0000 </r>
       <r>  -15.9750    1.0000 </r>
       <r>  -15.9747    1.0000 </r>
       <r>  -15.5155    1.0000 </r>
       <r>  -15.5150    1.0000 </r>
       <r>  -15.4516    1.0000 </r>
       <r>  -15.3342    1.0000 </r>
       <r>  -14.9711    1.0000 </r>
       <r>  -14.9704    1.0000 </r>
       <r>  -14.7954    1.0000 </r>
       <r>  -14.5936    1.0000 </r>
       <r>  -14.5153    1.0000 </r>
       <r>  -14.5148    1.0000 </r>
       <r>  -14.1377    1.0000 </r>
       <r>  -14.1374    1.0000 </r>
       <r>  -13.7470    1.0000 </r>
       <r>  -13.7463    1.0000 </r>
       <r>  -13.4706    1.0000 </r>
       <r>  -13.2437    1.0000 </r>
       <r>  -13.0450    1.0000 </r>
       <r>  -12.8934    1.0000 </r>
       <r>  -12.8929    1.0000 </r>
       <r>  -12.6091    1.0000 </r>
       <r>  -12.4708    1.0000 </r>
       <r>  -12.4700    1.0000 </r>
       <r>  -12.2697    1.0000 </r>
       <r>  -12.1716    1.0000 </r>
       <r>  -12.0314    1.0000 </r>
       <r>  -12.0311    1.0000 </r>
       <r>  -11.9412    1.0000 </r>
       <r>  -11.8347    1.0000 </r>
       <r>  -11.8342    1.0000 </r>
       <r>  -11.7415    1.0000 </r>
       <r>  -11.2479    1.0000 </r>
       <r>  -11.2476    1.0000 </r>
       <r>  -11.2210    1.0000 </r>
       <r>  -11.0301    1.0000 </r>
       <r>  -11.0299    1.0000 </r>
       <r>  -10.9368    1.0000 </r>
       <r>  -10.8834    1.0000 </r>
       <r>  -10.8831    1.0000 </r>
       <r>  -10.7703    1.0000 </r>
       <r>  -10.5373    1.0000 </r>
       <r>  -10.5368    1.0000 </r>
       <r>  -10.5328    1.0000 </r>
       <r>  -10.5324    1.0000 </r>
       <r>  -10.4538    1.0000 </r>
       <r>  -10.3074    1.0000 </r>
       <r>  -10.2944    1.0000 </r>
       <r>  -10.1006    1.0000 </r>
       <r>   -9.8492    1.0000 </r>
       <r>   -9.8490    1.0000 </r>
       <r>   -9.7170    1.0000 </r>
       <r>   -9.7000    1.0000 </r>
       <r>   -9.6994    1.0000 </r>
       <r>   -9.4593    1.0000 </r>
       <r>   -9.4591    1.0000 </r>
       <r>   -9.3692    1.0000 </r>
       <r>   -9.3392    1.0000 </r>
       <r>   -9.3390    1.0000 </r>
       <r>   -9.2639    1.0000 </r>
       <r>   -9.2637    1.0000 </r>
       <r>   -9.0895    1.0000 </r>
       <r>   -9.0891    1.0000 </r>
       <r>   -9.0469    1.0000 </r>
       <r>   -8.9123    1.0000 </r>
       <r>   -8.8580    1.0000 </r>
       <r>   -8.8579    1.0000 </r>
       <r>   -8.7999    1.0000 </r>
       <r>   -8.7681    1.0000 </r>
       <r>   -8.7680    1.0000 </r>
       <r>   -8.5702    1.0000 </r>
       <r>   -8.5694    1.0000 </r>
       <r>   -8.5017    1.0000 </r>
       <r>   -8.5014    1.0000 </r>
       <r>   -8.4874    1.0000 </r>
       <r>   -8.3456    1.0000 </r>
       <r>   -8.2989    1.0000 </r>
       <r>   -8.2984    1.0000 </r>
       <r>   -7.8803    1.0000 </r>
       <r>   -7.7101    1.0000 </r>
       <r>   -7.0025    1.0000 </r>
       <r>   -7.0022    1.0000 </r>
       <r>   -6.7319    1.0000 </r>
       <r>   -6.7316    1.0000 </r>
       <r>   -6.4821    1.0000 </r>
       <r>   -6.4674    1.0000 </r>
       <r>   -6.4672    1.0000 </r>
       <r>   -6.3456    1.0000 </r>
       <r>   -6.3255    1.0000 </r>
       <r>   -6.3254    1.0000 </r>
       <r>   -6.2685    1.0000 </r>
       <r>   -5.8409    1.0000 </r>
       <r>   -5.8407    1.0000 </r>
       <r>   -5.5527    1.0000 </r>
       <r>   -5.1438    1.0000 </r>
       <r>   -5.1436    1.0000 </r>
       <r>   -4.3155    1.0000 </r>
       <r>   -4.3151    1.0000 </r>
       <r>   -4.3149    1.0000 </r>
       <r>   -3.2234    0.0000 </r>
       <r>   -3.2231    0.0000 </r>
       <r>   -2.9998    0.0000 </r>
       <r>   -2.1880    0.0000 </r>
       <r>   -2.1876    0.0000 </r>
       <r>   -1.6179    0.0000 </r>
       <r>   -0.5884    0.0000 </r>
       <r>   -0.5881    0.0000 </r>
       <r>   -0.4801    0.0000 </r>
       <r>   -0.2419    0.0000 </r>
       <r>   -0.2417    0.0000 </r>
       <r>   -0.1185    0.0000 </r>
       <r>   -0.1166    0.0000 </r>
       <r>    0.0381    0.0000 </r>
       <r>    0.0424    0.0000 </r>
       <r>    0.0427    0.0000 </r>
       <r>    0.0656    0.0000 </r>
       <r>    0.0661    0.0000 </r>
       <r>    0.0706    0.0000 </r>
       <r>    0.2985    0.0000 </r>
       <r>    0.3816    0.0000 </r>
       <r>    0.3902    0.0000 </r>
       <r>    0.5595    0.0000 </r>
       <r>    0.5602    0.0000 </r>
       <r>    0.6386    0.0000 </r>
       <r>    0.6462    0.0000 </r>
       <r>    0.6991    0.0000 </r>
       <r>    0.7844    0.0000 </r>
       <r>    0.7845    0.0000 </r>
       <r>    0.8485    0.0000 </r>
       <r>    0.8504    0.0000 </r>
       <r>    0.8751    0.0000 </r>
       <r>    0.8987    0.0000 </r>
       <r>    0.8999    0.0000 </r>
       <r>    0.9153    0.0000 </r>
       <r>    0.9864    0.0000 </r>
       <r>    0.9870    0.0000 </r>
       <r>    1.0067    0.0000 </r>
       <r>    1.0151    0.0000 </r>
       <r>    1.0229    0.0000 </r>
       <r>    1.0298    0.0000 </r>
      </set>
      <set comment="kpoint 2">
       <r>  -26.7096    1.0000 </r>
       <r>  -26.7087    1.0000 </r>
       <r>  -26.7078    1.0000 </r>
       <r>  -26.6333    1.0000 </r>
       <r>  -26.6322    1.0000 </r>
       <r>  -26.6314    1.0000 </r>
       <r>  -25.8535    1.0000 </r>
       <r>  -25.8528    1.0000 </r>
       <r>  -25.8518    1.0000 </r>
       <r>  -25.8098    1.0000 </r>
       <r>  -25.8093    1.0000 </r>
       <r>  -25.8082    1.0000 </r>
       <r>  -23.6762    1.0000 </r>
       <r>  -23.6677    1.0000 </r>
       <r>  -23.4210    1.0000 </r>
       <r>  -23.4208    1.0000 </r>
       <r>  -23.4094    1.0000 </r>
       <r>  -23.4092    1.0000 </r>
       <r>  -21.2952    1.0000 </r>
       <r>  -21.0637    1.0000 </r>
       <r>  -21.0110    1.0000 </r>
       <r>  -21.0083    1.0000 </r>
       <r>  -20.6182    1.0000 </r>
       <r>  -19.6456    1.0000 </r>
       <r>  -19.6448    1.0000 </r>
       <r>  -18.9998    1.0000 </r>
       <r>  -18.8609    1.0000 </r>
       <r>  -18.8561    1.0000 </r>
       <r>  -18.1566    1.0000 </r>
       <r>  -18.1555    1.0000 </r>
       <r>  -17.7497    1.0000 </r>
       <r>  -17.7287    1.0000 </r>
       <r>  -17.7282    1.0000 </r>
       <r>  -17.1754    1.0000 </r>
       <r>  -16.9894    1.0000 </r>
       <r>  -16.9892    1.0000 </r>
       <r>  -15.9749    1.0000 </r>
       <r>  -15.9745    1.0000 </r>
       <r>  -15.5186    1.0000 </r>
       <r>  -15.5150    1.0000 </r>
       <r>  -15.4492    1.0000 </r>
       <r>  -15.3342    1.0000 </r>
       <r>  -14.9707    1.0000 </r>
       <r>  -14.9704    1.0000 </r>
       <r>  -14.7956    1.0000 </r>
       <r>  -14.5934    1.0000 </r>
       <r>  -14.5154    1.0000 </r>
       <r>  -14.5147    1.0000 </r>
       <r>  -14.1374    1.0000 </r>
       <r>  -14.1374    1.0000 </r>
       <r>  -13.7484    1.0000 </r>
       <r>  -13.7463    1.0000 </r>
       <r>  -13.4697    1.0000 </r>
       <r>  -13.2439    1.0000 </r>
       <r>  -13.0448    1.0000 </r>
       <r>  -12.8937    1.0000 </r>
       <r>  -12.8929    1.0000 </r>
       <r>  -12.6088    1.0000 </r>
       <r>  -12.4709    1.0000 </r>
       <r>  -12.4699    1.0000 </r>
       <r>  -12.2695    1.0000 </r>
       <r>  -12.1716    1.0000 </r>
       <r>  -12.0316    1.0000 </r>
       <r>  -12.0312    1.0000 </r>
       <r>  -11.9407    1.0000 </r>
       <r>  -11.8351    1.0000 </r>
       <r>  -11.8342    1.0000 </r>
       <r>  -11.7417    1.0000 </r>
       <r>  -11.2480    1.0000 </r>
       <r>  -11.2477    1.0000 </r>
       <r>  -11.2213    1.0000 </r>
       <r>  -11.0298    1.0000 </r>
       <r>  -11.0293    1.0000 </r>
       <r>  -10.9367    1.0000 </r>
       <r>  -10.8835    1.0000 </r>
       <r>  -10.8831    1.0000 </r>
       <r>  -10.7706    1.0000 </r>
       <r>  -10.5372    1.0000 </r>
       <r>  -10.5367    1.0000 </r>
       <r>  -10.5326    1.0000 </r>
       <r>  -10.5323    1.0000 </r>
       <r>  -10.4535    1.0000 </r>
       <r>  -10.3078    1.0000 </r>
       <r>  -10.2944    1.0000 </r>
       <r>  -10.1012    1.0000 </r>
       <r>   -9.8492    1.0000 </r>
       <r>   -9.8483    1.0000 </r>
       <r>   -9.7170    1.0000 </r>
       <r>   -9.7000    1.0000 </r>
       <r>   -9.6994    1.0000 </r>
       <r>   -9.4593    1.0000 </r>
       <r>   -9.4590    1.0000 </r>
       <r>   -9.3696    1.0000 </r>
       <r>   -9.3404    1.0000 </r>
       <r>   -9.3392    1.0000 </r>
       <r>   -9.2639    1.0000 </r>
       <r>   -9.2632    1.0000 </r>
       <r>   -9.0895    1.0000 </r>
       <r>   -9.0893    1.0000 </r>
       <r>   -9.0454    1.0000 </r>
       <r>   -8.9122    1.0000 </r>
       <r>   -8.8581    1.0000 </r>
       <r>   -8.8580    1.0000 </r>
       <r>   -8.7999    1.0000 </r>
       <r>   -8.7681    1.0000 </r>
       <r>   -8.7681    1.0000 </r>
       <r>   -8.5704    1.0000 </r>
       <r>   -8.5695    1.0000 </r>
       <r>   -8.5021    1.0000 </r>
       <r>   -8.5014    1.0000 </r>
       <r>   -8.4875    1.0000 </r>
       <r>   -8.3453    1.0000 </r>
       <r>   -8.2989    1.0000 </r>
       <r>   -8.2984    1.0000 </r>
       <r>   -7.8800    1.0000 </r>
       <r>   -7.7103    1.0000 </r>
       <r>   -7.0023    1.0000 </r>
       <r>   -7.0021    1.0000 </r>
       <r>   -6.7329    1.0000 </r>
       <r>   -6.7317    1.0000 </r>
       <r>   -6.4808    1.0000 </r>
       <r>   -6.4674    1.0000 </r>
       <r>   -6.4671    1.0000 </r>
       <r>   -6.3463    1.0000 </r>
       <r>   -6.3254    1.0000 </r>
       <r>   -6.3248    1.0000 </r>
       <r>   -6.2686    1.0000 </r>
       <r>   -5.8427    1.0000 </r>
       <r>   -5.8408    1.0000 </r>
       <r>   -5.5510    1.0000 </r>
       <r>   -5.1442    1.0000 </r>
       <r>   -5.1436    1.0000 </r>
       <r>   -4.3155    1.0000 </r>
       <r>   -4.3151    1.0000 </r>
       <r>   -4.3149    1.0000 </r>
       <r>   -3.2234    0.0000 </r>
       <r>   -3.2229    0.0000 </r>
       <r>   -3.0003    0.0000 </r>
       <r>   -2.1879    0.0000 </r>
       <r>   -2.1868    0.0000 </r>
       <r>   -1.6189    0.0000 </r>
       <r>   -0.5881    0.0000 </r>
       <r>   -0.5873    0.0000 </r>
       <r>   -0.4798    0.0000 </r>
       <r>   -0.2429    0.0000 </r>
       <r>   -0.2422    0.0000 </r>
       <r>   -0.1177    0.0000 </r>
       <r>   -0.1160    0.0000 </r>
       <r>    0.0380    0.0000 </r>
       <r>    0.0423    0.0000 </r>
       <r>    0.0427    0.0000 </r>
       <r>    0.0643    0.0000 </r>
       <r>    0.0662    0.0000 </r>
       <r>    0.0715    0.0000 </r>
       <r>    0.2976    0.0000 </r>
       <r>    0.3818    0.0000 </r>
       <r>    0.3902    0.0000 </r>
       <r>    0.5595    0.0000 </r>
       <r>    0.5607    0.0000 </r>
       <r>    0.6388    0.0000 </r>
       <r>    0.6468    0.0000 </r>
       <r>    0.6972    0.0000 </r>
       <r>    0.7842    0.0000 </r>
       <r>    0.7862    0.0000 </r>
       <r>    0.8430    0.0000 </r>
       <r>    0.8497    0.0000 </r>
       <r>    0.8811    0.0000 </r>
       <r>    0.8884    0.0000 </r>
       <r>    0.8994    0.0000 </r>
       <r>    0.9268    0.0000 </r>
       <r>    0.9853    0.0000 </r>
       <r>    0.9861    0.0000 </r>
       <r>    1.0067    0.0000 </r>
       <r>    1.0145    0.0000 </r>
       <r>    1.0225    0.0000 </r>
       <r>    1.0288    0.0000 </r>
      </set>
      <set comment="kpoint 3">
       <r>  -26.7096    1.0000 </r>
       <r>  -26.7087    1.0000 </r>
       <r>  -26.7078    1.0000 </r>
       <r>  -26.6333    1.0000 </r>
       <r>  -26.6322    1.0000 </r>
       <r>  -26.6314    1.0000 </r>
       <r>  -25.8535    1.0000 </r>
       <r>  -25.8528    1.0000 </r>
       <r>  -25.8518    1.0000 </r>
       <r>  -25.8098    1.0000 </r>
       <r>  -25.8093    1.0000 </r>
       <r>  -25.8082    1.0000 </r>
       <r>  -23.6761    1.0000 </r>
       <r>  -23.6678    1.0000 </r>
       <r>  -23.4210    1.0000 </r>
       <r>  -23.4207    1.0000 </r>
       <r>  -23.4094    1.0000 </r>
       <r>  -23.4092    1.0000 </r>
       <r>  -21.2947    1.0000 </r>
       <r>  -21.0701    1.0000 </r>
       <r>  -21.0110    1.0000 </r>
       <r>  -21.0013    1.0000 </r>
       <r>  -20.6196    1.0000 </r>
       <r>  -19.6456    1.0000 </r>
       <r>  -19.6427    1.0000 </r>
       <r>  -19.0125    1.0000 </r>
       <r>  -18.8609    1.0000 </r>
       <r>  -18.8433    1.0000 </r>
       <r>  -18.1589    1.0000 </r>
       <r>  -18.1555    1.0000 </r>
       <r>  -17.7497    1.0000 </r>
       <r>  -17.7290    1.0000 </r>
       <r>  -17.7282    1.0000 </r>
       <r>  -17.1741    1.0000 </r>
       <r>  -16.9899    1.0000 </r>
       <r>  -16.9892    1.0000 </r>
       <r>  -15.9749    1.0000 </r>
       <r>  -15.9733    1.0000 </r>
       <r>  -15.5267    1.0000 </r>
       <r>  -15.5150    1.0000 </r>
       <r>  -15.4432    1.0000 </r>
       <r>  -15.3343    1.0000 </r>
       <r>  -14.9706    1.0000 </r>
       <r>  -14.9691    1.0000 </r>
       <r>  -14.7960    1.0000 </r>
       <r>  -14.5930    1.0000 </r>
       <r>  -14.5155    1.0000 </r>
       <r>  -14.5146    1.0000 </r>
       <r>  -14.1374    1.0000 </r>
       <r>  -14.1365    1.0000 </r>
       <r>  -13.7522    1.0000 </r>
       <r>  -13.7464    1.0000 </r>
       <r>  -13.4668    1.0000 </r>
       <r>  -13.2444    1.0000 </r>
       <r>  -13.0442    1.0000 </r>
       <r>  -12.8947    1.0000 </r>
       <r>  -12.8929    1.0000 </r>
       <r>  -12.6079    1.0000 </r>
       <r>  -12.4712    1.0000 </r>
       <r>  -12.4698    1.0000 </r>
       <r>  -12.2689    1.0000 </r>
       <r>  -12.1717    1.0000 </r>
       <r>  -12.0323    1.0000 </r>
       <r>  -12.0309    1.0000 </r>
       <r>  -11.9394    1.0000 </r>
       <r>  -11.8363    1.0000 </r>
       <r>  -11.8342    1.0000 </r>
       <r>  -11.7423    1.0000 </r>
       <r>  -11.2483    1.0000 </r>
       <r>  -11.2481    1.0000 </r>
       <r>  -11.2222    1.0000 </r>
       <r>  -11.0295    1.0000 </r>
       <r>  -11.0274    1.0000 </r>
       <r>  -10.9365    1.0000 </r>
       <r>  -10.8839    1.0000 </r>
       <r>  -10.8832    1.0000 </r>
       <r>  -10.7716    1.0000 </r>
       <r>  -10.5373    1.0000 </r>
       <r>  -10.5362    1.0000 </r>
       <r>  -10.5323    1.0000 </r>
       <r>  -10.5319    1.0000 </r>
       <r>  -10.4526    1.0000 </r>
       <r>  -10.3089    1.0000 </r>
       <r>  -10.2943    1.0000 </r>
       <r>  -10.1028    1.0000 </r>
       <r>   -9.8492    1.0000 </r>
       <r>   -9.8460    1.0000 </r>
       <r>   -9.7171    1.0000 </r>
       <r>   -9.6998    1.0000 </r>
       <r>   -9.6994    1.0000 </r>
       <r>   -9.4594    1.0000 </r>
       <r>   -9.4589    1.0000 </r>
       <r>   -9.3708    1.0000 </r>
       <r>   -9.3444    1.0000 </r>
       <r>   -9.3392    1.0000 </r>
       <r>   -9.2641    1.0000 </r>
       <r>   -9.2616    1.0000 </r>
       <r>   -9.0901    1.0000 </r>
       <r>   -9.0890    1.0000 </r>
       <r>   -9.0411    1.0000 </r>
       <r>   -8.9118    1.0000 </r>
       <r>   -8.8585    1.0000 </r>
       <r>   -8.8582    1.0000 </r>
       <r>   -8.7997    1.0000 </r>
       <r>   -8.7682    1.0000 </r>
       <r>   -8.7680    1.0000 </r>
       <r>   -8.5712    1.0000 </r>
       <r>   -8.5697    1.0000 </r>
       <r>   -8.5033    1.0000 </r>
       <r>   -8.5014    1.0000 </r>
       <r>   -8.4877    1.0000 </r>
       <r>   -8.3445    1.0000 </r>
       <r>   -8.2990    1.0000 </r>
       <r>   -8.2984    1.0000 </r>
       <r>   -7.8791    1.0000 </r>
       <r>   -7.7110    1.0000 </r>
       <r>   -7.0023    1.0000 </r>
       <r>   -7.0014    1.0000 </r>
       <r>   -6.7357    1.0000 </r>
       <r>   -6.7317    1.0000 </r>
       <r>   -6.4773    1.0000 </r>
       <r>   -6.4673    1.0000 </r>
       <r>   -6.4669    1.0000 </r>
       <r>   -6.3481    1.0000 </r>
       <r>   -6.3254    1.0000 </r>
       <r>   -6.3229    1.0000 </r>
       <r>   -6.2687    1.0000 </r>
       <r>   -5.8480    1.0000 </r>
       <r>   -5.8408    1.0000 </r>
       <r>   -5.5463    1.0000 </r>
       <r>   -5.1453    1.0000 </r>
       <r>   -5.1436    1.0000 </r>
       <r>   -4.3155    1.0000 </r>
       <r>   -4.3151    1.0000 </r>
       <r>   -4.3149    1.0000 </r>
       <r>   -3.2233    0.0000 </r>
       <r>   -3.2223    0.0000 </r>
       <r>   -3.0018    0.0000 </r>
       <r>   -2.1879    0.0000 </r>
       <r>   -2.1841    0.0000 </r>
       <r>   -1.6220    0.0000 </r>
       <r>   -0.5881    0.0000 </r>
       <r>   -0.5841    0.0000 </r>
       <r>   -0.4792    0.0000 </r>
       <r>   -0.2460    0.0000 </r>
       <r>   -0.2435    0.0000 </r>
       <r>   -0.1156    0.0000 </r>
       <r>   -0.1140    0.0000 </r>
       <r>    0.0379    0.0000 </r>
       <r>    0.0421    0.0000 </r>
       <r>    0.0424    0.0000 </r>
       <r>    0.0603    0.0000 </r>
       <r>    0.0665    0.0000 </r>
       <r>    0.0738    0.0000 </r>
       <r>    0.2951    0.0000 </r>
       <r>    0.3823    0.0000 </r>
       <r>    0.3906    0.0000 </r>
       <r>    0.5576    0.0000 </r>
       <r>    0.5639    0.0000 </r>
       <r>    0.6397    0.0000 </r>
       <r>    0.6487    0.0000 </r>
       <r>    0.6920    0.0000 </r>
       <r>    0.7834    0.0000 </r>
       <r>    0.7911    0.0000 </r>
       <r>    0.8315    0.0000 </r>
       <r>    0.8492    0.0000 </r>
       <r>    0.8722    0.0000 </r>
       <r>    0.8927    0.0000 </r>
       <r>    0.9005    0.0000 </r>
       <r>    0.9434    0.0000 </r>
       <r>    0.9825    0.0000 </r>
       <r>    0.9836    0.0000 </r>
       <r>    1.0055    0.0000 </r>
       <r>    1.0106    0.0000 </r>
       <r>    1.0232    0.0000 </r>
       <r>    1.0290    0.0000 </r>
      </set>
      <set comment="kpoint 4">
       <r>  -26.7096    1.0000 </r>
       <r>  -26.7086    1.0000 </r>
       <r>  -26.7078    1.0000 </r>
       <r>  -26.6333    1.0000 </r>
       <r>  -26.6322    1.0000 </r>
       <r>  -26.6314    1.0000 </r>
       <r>  -25.8535    1.0000 </r>
       <r>  -25.8528    1.0000 </r>
       <r>  -25.8518    1.0000 </r>
       <r>  -25.8098    1.0000 </r>
       <r>  -25.8093    1.0000 </r>
       <r>  -25.8082    1.0000 </r>
       <r>  -23.6761    1.0000 </r>
       <r>  -23.6678    1.0000 </r>
       <r>  -23.4209    1.0000 </r>
       <r>  -23.4207    1.0000 </r>
       <r>  -23.4094    1.0000 </r>
       <r>  -23.4092    1.0000 </r>
       <r>  -21.2939    1.0000 </r>
       <r>  -21.0785    1.0000 </r>
       <r>  -21.0110    1.0000 </r>
       <r>  -20.9919    1.0000 </r>
       <r>  -20.6221    1.0000 </r>
       <r>  -19.6456    1.0000 </r>
       <r>  -19.6393    1.0000 </r>
       <r>  -19.0300    1.0000 </r>
       <r>  -18.8609    1.0000 </r>
       <r>  -18.8253    1.0000 </r>
       <r>  -18.1627    1.0000 </r>
       <r>  -18.1555    1.0000 </r>
       <r>  -17.7496    1.0000 </r>
       <r>  -17.7294    1.0000 </r>
       <r>  -17.7282    1.0000 </r>
       <r>  -17.1719    1.0000 </r>
       <r>  -16.9909    1.0000 </r>
       <r>  -16.9892    1.0000 </r>
       <r>  -15.9749    1.0000 </r>
       <r>  -15.9712    1.0000 </r>
       <r>  -15.5380    1.0000 </r>
       <r>  -15.5149    1.0000 </r>
       <r>  -15.4354    1.0000 </r>
       <r>  -15.3344    1.0000 </r>
       <r>  -14.9707    1.0000 </r>
       <r>  -14.9668    1.0000 </r>
       <r>  -14.7967    1.0000 </r>
       <r>  -14.5922    1.0000 </r>
       <r>  -14.5158    1.0000 </r>
       <r>  -14.5143    1.0000 </r>
       <r>  -14.1375    1.0000 </r>
       <r>  -14.1349    1.0000 </r>
       <r>  -13.7585    1.0000 </r>
       <r>  -13.7467    1.0000 </r>
       <r>  -13.4623    1.0000 </r>
       <r>  -13.2452    1.0000 </r>
       <r>  -13.0432    1.0000 </r>
       <r>  -12.8963    1.0000 </r>
       <r>  -12.8928    1.0000 </r>
       <r>  -12.6064    1.0000 </r>
       <r>  -12.4719    1.0000 </r>
       <r>  -12.4694    1.0000 </r>
       <r>  -12.2679    1.0000 </r>
       <r>  -12.1719    1.0000 </r>
       <r>  -12.0334    1.0000 </r>
       <r>  -12.0305    1.0000 </r>
       <r>  -11.9372    1.0000 </r>
       <r>  -11.8383    1.0000 </r>
       <r>  -11.8341    1.0000 </r>
       <r>  -11.7433    1.0000 </r>
       <r>  -11.2489    1.0000 </r>
       <r>  -11.2485    1.0000 </r>
       <r>  -11.2235    1.0000 </r>
       <r>  -11.0289    1.0000 </r>
       <r>  -11.0241    1.0000 </r>
       <r>  -10.9360    1.0000 </r>
       <r>  -10.8845    1.0000 </r>
       <r>  -10.8832    1.0000 </r>
       <r>  -10.7733    1.0000 </r>
       <r>  -10.5374    1.0000 </r>
       <r>  -10.5353    1.0000 </r>
       <r>  -10.5321    1.0000 </r>
       <r>  -10.5310    1.0000 </r>
       <r>  -10.4513    1.0000 </r>
       <r>  -10.3107    1.0000 </r>
       <r>  -10.2941    1.0000 </r>
       <r>  -10.1055    1.0000 </r>
       <r>   -9.8492    1.0000 </r>
       <r>   -9.8423    1.0000 </r>
       <r>   -9.7171    1.0000 </r>
       <r>   -9.6995    1.0000 </r>
       <r>   -9.6993    1.0000 </r>
       <r>   -9.4595    1.0000 </r>
       <r>   -9.4585    1.0000 </r>
       <r>   -9.3727    1.0000 </r>
       <r>   -9.3509    1.0000 </r>
       <r>   -9.3393    1.0000 </r>
       <r>   -9.2643    1.0000 </r>
       <r>   -9.2591    1.0000 </r>
       <r>   -9.0911    1.0000 </r>
       <r>   -9.0885    1.0000 </r>
       <r>   -9.0343    1.0000 </r>
       <r>   -8.9112    1.0000 </r>
       <r>   -8.8591    1.0000 </r>
       <r>   -8.8586    1.0000 </r>
       <r>   -8.7993    1.0000 </r>
       <r>   -8.7684    1.0000 </r>
       <r>   -8.7680    1.0000 </r>
       <r>   -8.5729    1.0000 </r>
       <r>   -8.5697    1.0000 </r>
       <r>   -8.5052    1.0000 </r>
       <r>   -8.5014    1.0000 </r>
       <r>   -8.4881    1.0000 </r>
       <r>   -8.3433    1.0000 </r>
       <r>   -8.2991    1.0000 </r>
       <r>   -8.2984    1.0000 </r>
       <r>   -7.8775    1.0000 </r>
       <r>   -7.7121    1.0000 </r>
       <r>   -7.0023    1.0000 </r>
       <r>   -7.0001    1.0000 </r>
       <r>   -6.7404    1.0000 </r>
       <r>   -6.7317    1.0000 </r>
       <r>   -6.4715    1.0000 </r>
       <r>   -6.4673    1.0000 </r>
       <r>   -6.4663    1.0000 </r>
       <r>   -6.3506    1.0000 </r>
       <r>   -6.3253    1.0000 </r>
       <r>   -6.3204    1.0000 </r>
       <r>   -6.2689    1.0000 </r>
       <r>   -5.8563    1.0000 </r>
       <r>   -5.8408    1.0000 </r>
       <r>   -5.5387    1.0000 </r>
       <r>   -5.1472    1.0000 </r>
       <r>   -5.1436    1.0000 </r>
       <r>   -4.3155    1.0000 </r>
       <r>   -4.3151    1.0000 </r>
       <r>   -4.3149    1.0000 </r>
       <r>   -3.2233    0.0000 </r>
       <r>   -3.2211    0.0000 </r>
       <r>   -3.0043    0.0000 </r>
       <r>   -2.1879    0.0000 </r>
       <r>   -2.1797    0.0000 </r>
       <r>   -1.6270    0.0000 </r>
       <r>   -0.5881    0.0000 </r>
       <r>   -0.5790    0.0000 </r>
       <r>   -0.4781    0.0000 </r>
       <r>   -0.2509    0.0000 </r>
       <r>   -0.2456    0.0000 </r>
       <r>   -0.1128    0.0000 </r>
       <r>   -0.1103    0.0000 </r>
       <r>    0.0374    0.0000 </r>
       <r>    0.0414    0.0000 </r>
       <r>    0.0419    0.0000 </r>
       <r>    0.0545    0.0000 </r>
       <r>    0.0671    0.0000 </r>
       <r>    0.0777    0.0000 </r>
       <r>    0.2907    0.0000 </r>
       <r>    0.3831    0.0000 </r>
       <r>    0.3915    0.0000 </r>
       <r>    0.5544    0.0000 </r>
       <r>    0.5689    0.0000 </r>
       <r>    0.6410    0.0000 </r>
       <r>    0.6519    0.0000 </r>
       <r>    0.6844    0.0000 </r>
       <r>    0.7822    0.0000 </r>
       <r>    0.7979    0.0000 </r>
       <r>    0.8188    0.0000 </r>
       <r>    0.8482    0.0000 </r>
       <r>    0.8570    0.0000 </r>
       <r>    0.9022    0.0000 </r>
       <r>    0.9052    0.0000 </r>
       <r>    0.9582    0.0000 </r>
       <r>    0.9791    0.0000 </r>
       <r>    0.9804    0.0000 </r>
       <r>    1.0013    0.0000 </r>
       <r>    1.0063    0.0000 </r>
       <r>    1.0282    0.0000 </r>
       <r>    1.0300    0.0000 </r>
      </set>
      <set comment="kpoint 5">
       <r>  -26.7096    1.0000 </r>
       <r>  -26.7086    1.0000 </r>
       <r>  -26.7078    1.0000 </r>
       <r>  -26.6333    1.0000 </r>
       <r>  -26.6322    1.0000 </r>
       <r>  -26.6314    1.0000 </r>
       <r>  -25.8535    1.0000 </r>
       <r>  -25.8528    1.0000 </r>
       <r>  -25.8518    1.0000 </r>
       <r>  -25.8097    1.0000 </r>
       <r>  -25.8093    1.0000 </r>
       <r>  -25.8082    1.0000 </r>
       <r>  -23.6760    1.0000 </r>
       <r>  -23.6679    1.0000 </r>
       <r>  -23.4209    1.0000 </r>
       <r>  -23.4206    1.0000 </r>
       <r>  -23.4095    1.0000 </r>
       <r>  -23.4092    1.0000 </r>
       <r>  -21.2927    1.0000 </r>
       <r>  -21.0878    1.0000 </r>
       <r>  -21.0110    1.0000 </r>
       <r>  -20.9813    1.0000 </r>
       <r>  -20.6255    1.0000 </r>
       <r>  -19.6456    1.0000 </r>
       <r>  -19.6346    1.0000 </r>
       <r>  -19.0503    1.0000 </r>
       <r>  -18.8609    1.0000 </r>
       <r>  -18.8046    1.0000 </r>
       <r>  -18.1680    1.0000 </r>
       <r>  -18.1555    1.0000 </r>
       <r>  -17.7495    1.0000 </r>
       <r>  -17.7300    1.0000 </r>
       <r>  -17.7283    1.0000 </r>
       <r>  -17.1689    1.0000 </r>
       <r>  -16.9921    1.0000 </r>
       <r>  -16.9891    1.0000 </r>
       <r>  -15.9749    1.0000 </r>
       <r>  -15.9683    1.0000 </r>
       <r>  -15.5513    1.0000 </r>
       <r>  -15.5149    1.0000 </r>
       <r>  -15.4269    1.0000 </r>
       <r>  -15.3345    1.0000 </r>
       <r>  -14.9709    1.0000 </r>
       <r>  -14.9635    1.0000 </r>
       <r>  -14.7977    1.0000 </r>
       <r>  -14.5911    1.0000 </r>
       <r>  -14.5161    1.0000 </r>
       <r>  -14.5139    1.0000 </r>
       <r>  -14.1376    1.0000 </r>
       <r>  -14.1328    1.0000 </r>
       <r>  -13.7668    1.0000 </r>
       <r>  -13.7470    1.0000 </r>
       <r>  -13.4564    1.0000 </r>
       <r>  -13.2464    1.0000 </r>
       <r>  -13.0417    1.0000 </r>
       <r>  -12.8984    1.0000 </r>
       <r>  -12.8927    1.0000 </r>
       <r>  -12.6044    1.0000 </r>
       <r>  -12.4729    1.0000 </r>
       <r>  -12.4690    1.0000 </r>
       <r>  -12.2665    1.0000 </r>
       <r>  -12.1722    1.0000 </r>
[...]
       <r>   -27.2860     0.0000     0.0000 </r>
       <r>   -27.1838     0.0000     0.0000 </r>
       <r>   -27.0815     0.0000     0.0000 </r>
       <r>   -26.9792     0.0000     0.0000 </r>
       <r>   -26.8769     0.0000     0.0000 </r>
       <r>   -26.7747     0.0000     0.0000 </r>
       <r>   -26.6724    58.6653     6.0000 </r>
       <r>   -26.5701    58.6653    12.0000 </r>
       <r>   -26.4678     0.0000    12.0000 </r>
       <r>   -26.3656     0.0000    12.0000 </r>
       <r>   -26.2633     0.0000    12.0000 </r>
       <r>   -26.1610     0.0000    12.0000 </r>
       <r>   -26.0587     0.0000    12.0000 </r>
       <r>   -25.9565     0.0000    12.0000 </r>
       <r>   -25.8542    24.5244    14.5082 </r>
       <r>   -25.7519    58.6653    24.0000 </r>
       <r>   -25.6496     0.0000    24.0000 </r>
       <r>   -25.5474     0.0000    24.0000 </r>
       <r>   -25.4451     0.0000    24.0000 </r>
       <r>   -25.3428     0.0000    24.0000 </r>
       <r>   -25.2405     0.0000    24.0000 </r>
       <r>   -25.1383     0.0000    24.0000 </r>
       <r>   -25.0360     0.0000    24.0000 </r>
       <r>   -24.9337     0.0000    24.0000 </r>
       <r>   -24.8314     0.0000    24.0000 </r>
       <r>   -24.7292     0.0000    24.0000 </r>
       <r>   -24.6269     0.0000    24.0000 </r>
       <r>   -24.5246     0.0000    24.0000 </r>
       <r>   -24.4223     0.0000    24.0000 </r>
       <r>   -24.3201     0.0000    24.0000 </r>
       <r>   -24.2178     0.0000    24.0000 </r>
       <r>   -24.1155     0.0000    24.0000 </r>
       <r>   -24.0132     0.0000    24.0000 </r>
       <r>   -23.9110     0.0000    24.0000 </r>
       <r>   -23.8087     0.0000    24.0000 </r>
       <r>   -23.7064     0.0001    24.0000 </r>
       <r>   -23.6041    39.1101    28.0000 </r>
       <r>   -23.5019     0.0000    28.0000 </r>
       <r>   -23.3996    75.5372    35.7256 </r>
       <r>   -23.2973     0.0000    36.0000 </r>
       <r>   -23.1950     0.0000    36.0000 </r>
       <r>   -23.0928     0.0000    36.0000 </r>
       <r>   -22.9905     0.0000    36.0000 </r>
       <r>   -22.8882     0.0000    36.0000 </r>
       <r>   -22.7859     0.0000    36.0000 </r>
       <r>   -22.6837     0.0000    36.0000 </r>
       <r>   -22.5814     0.0000    36.0000 </r>
       <r>   -22.4791     0.0000    36.0000 </r>
       <r>   -22.3768     0.0000    36.0000 </r>
       <r>   -22.2746     0.0000    36.0000 </r>
       <r>   -22.1723     0.0000    36.0000 </r>
       <r>   -22.0700     0.0000    36.0000 </r>
       <r>   -21.9677     0.0000    36.0000 </r>
       <r>   -21.8655     0.0000    36.0000 </r>
       <r>   -21.7632     0.0000    36.0000 </r>
       <r>   -21.6609     0.0000    36.0000 </r>
       <r>   -21.5586     0.0000    36.0000 </r>
       <r>   -21.4564     0.0000    36.0000 </r>
       <r>   -21.3541     0.0000    36.0000 </r>
       <r>   -21.2518    12.7125    37.3002 </r>
       <r>   -21.1495    13.4501    39.3090 </r>
       <r>   -21.0473     5.5178    39.9977 </r>
       <r>   -20.9450    24.2017    42.4752 </r>
       <r>   -20.8427     4.6538    43.0427 </r>
       <r>   -20.7404     9.0858    44.4293 </r>
       <r>   -20.6382     6.1759    45.5650 </r>
       <r>   -20.5359     0.0000    46.0000 </r>
       <r>   -20.4336     0.0000    46.0000 </r>
       <r>   -20.3313     0.0000    46.0000 </r>
       <r>   -20.2291     0.0000    46.0000 </r>
       <r>   -20.1268     0.0000    46.0000 </r>
       <r>   -20.0245     0.0000    46.0000 </r>
       <r>   -19.9222     0.0000    46.0000 </r>
       <r>   -19.8200     0.0000    46.0000 </r>
       <r>   -19.7177     0.0000    46.0000 </r>
       <r>   -19.6154    23.9558    48.4501 </r>
       <r>   -19.5131     3.8813    48.9970 </r>
       <r>   -19.4109     6.9370    50.0095 </r>
       <r>   -19.3086     7.5364    50.9375 </r>
       <r>   -19.2063     2.4424    51.2831 </r>
       <r>   -19.1040     1.9601    51.5671 </r>
       <r>   -19.0018     2.6520    51.9046 </r>
       <r>   -18.8995     0.0000    52.0000 </r>
       <r>   -18.7972    22.5054    54.3017 </r>
       <r>   -18.6949     2.0141    54.5727 </r>
       <r>   -18.5927     2.1777    54.8561 </r>
       <r>   -18.4904     5.8658    55.5333 </r>
       <r>   -18.3881     5.3017    56.2089 </r>
       <r>   -18.2858     7.3827    57.0884 </r>
       <r>   -18.1836     3.8256    57.5913 </r>
       <r>   -18.0813    21.5097    60.0000 </r>
       <r>   -17.9790     0.0000    60.0000 </r>
       <r>   -17.8767     0.0000    60.0000 </r>
       <r>   -17.7745     0.0018    60.0002 </r>
       <r>   -17.6722    58.6635    66.0000 </r>
       <r>   -17.5699     0.0000    66.0000 </r>
       <r>   -17.4676     0.0000    66.0000 </r>
       <r>   -17.3654     0.0000    66.0000 </r>
       <r>   -17.2631     0.0000    66.0000 </r>
       <r>   -17.1608     3.8469    66.3934 </r>
       <r>   -17.0585    14.2635    68.0922 </r>
       <r>   -16.9563    32.5908    72.0000 </r>
       <r>   -16.8540     0.0000    72.0000 </r>
       <r>   -16.7517     0.0000    72.0000 </r>
       <r>   -16.6494     0.0000    72.0000 </r>
       <r>   -16.5472     0.0000    72.0000 </r>
       <r>   -16.4449     0.0000    72.0000 </r>
       <r>   -16.3426     0.0000    72.0000 </r>
       <r>   -16.2403     0.0000    72.0000 </r>
       <r>   -16.1381     0.0000    72.0000 </r>
       <r>   -16.0358     0.0000    72.0000 </r>
       <r>   -15.9335    26.0761    74.6669 </r>
       <r>   -15.8312     9.7328    75.8288 </r>
       <r>   -15.7290     8.7170    76.9915 </r>
       <r>   -15.6267     3.0948    77.4165 </r>
       <r>   -15.5244     5.1747    78.0292 </r>
       <r>   -15.4221     3.1101    80.3181 </r>
       <r>   -15.3199    34.0834    83.9859 </r>
       <r>   -15.2176     0.0000    84.0000 </r>
       <r>   -15.1153     0.0000    84.0000 </r>
       <r>   -15.0130     0.0000    84.0000 </r>
       <r>   -14.9108    27.8092    86.8442 </r>
       <r>   -14.8085    21.4365    89.3925 </r>
       <r>   -14.7062     0.0000    90.0000 </r>
       <r>   -14.6039     0.2012    90.0206 </r>
       <r>   -14.5017    48.4489    95.5551 </r>
       <r>   -14.3994     0.0000    96.0000 </r>
       <r>   -14.2971     0.0000    96.0000 </r>
       <r>   -14.1948     0.0000    96.0000 </r>
       <r>   -14.0925    27.2004    98.7819 </r>
       <r>   -13.9903    11.3495   100.1274 </r>
       <r>   -13.8880     8.0348   101.1551 </r>
       <r>   -13.7857     3.3450   101.6088 </r>
       <r>   -13.6834    22.1623   104.0000 </r>
       <r>   -13.5812     0.0000   104.0000 </r>
       <r>   -13.4789     0.1677   104.0172 </r>
       <r>   -13.3766     5.8419   104.8642 </r>
       <r>   -13.2743    19.7990   107.0917 </r>
       <r>   -13.1721     4.8881   108.0000 </r>
       <r>   -13.0698     0.0004   108.0000 </r>
       <r>   -12.9675    22.0072   110.2508 </r>
       <r>   -12.8652    29.3297   113.9997 </r>
       <r>   -12.7630     0.0000   114.0000 </r>
       <r>   -12.6607     0.0000   114.0000 </r>
       <r>   -12.5584    11.0460   115.1297 </r>
       <r>   -12.4561    35.7947   119.4943 </r>
       <r>   -12.3539     0.0000   120.0000 </r>
       <r>   -12.2516     6.1923   120.6333 </r>
       <r>   -12.1493    29.0027   123.9997 </r>
       <r>   -12.0470    11.2957   125.1553 </r>
       <r>   -11.9448    17.9004   128.3975 </r>
       <r>   -11.8425    23.5993   131.5137 </r>
       <r>   -11.7402    24.0689   135.8618 </r>
       <r>   -11.6379     0.0000   136.0000 </r>
       <r>   -11.5357     0.0000   136.0000 </r>
       <r>   -11.4334     0.0000   136.0000 </r>
       <r>   -11.3311     0.0000   136.0000 </r>
       <r>   -11.2288    54.6128   141.5855 </r>
       <r>   -11.1266     0.0000   142.0000 </r>
       <r>   -11.0243     6.7696   142.6924 </r>
       <r>   -10.9220    22.6162   146.7798 </r>
       <r>   -10.8197    43.8193   153.1484 </r>
       <r>   -10.7175     6.1921   154.0000 </r>
       <r>   -10.6152     0.0000   154.0000 </r>
       <r>   -10.5129    53.7389   159.4962 </r>
       <r>   -10.4106    15.3696   163.5719 </r>
       <r>   -10.3084    14.9342   165.8608 </r>
       <r>   -10.2061    17.2856   168.4346 </r>
       <r>   -10.1038     8.1717   169.8358 </r>
       <r>   -10.0015     0.0000   170.0000 </r>
       <r>    -9.8993     0.0000   170.0000 </r>
       <r>    -9.7970    25.4393   172.6018 </r>
       <r>    -9.6947    51.1831   177.9681 </r>
       <r>    -9.5924    11.2452   180.1168 </r>
       <r>    -9.4902     8.2333   181.1421 </r>
       <r>    -9.3879    56.1261   187.0403 </r>
       <r>    -9.2856    23.2032   190.0398 </r>
       <r>    -9.1833    14.0109   193.4997 </r>
       <r>    -9.0811    26.4135   196.6015 </r>
       <r>    -8.9788     5.0996   198.5216 </r>
       <r>    -8.8765    34.9838   202.2113 </r>
       <r>    -8.7742    40.1017   209.0348 </r>
       <r>    -8.6720     9.2749   213.0153 </r>
       <r>    -8.5697    16.6653   214.8378 </r>
       <r>    -8.4674    58.6577   221.9992 </r>
       <r>    -8.3651     0.0054   222.0005 </r>
       <r>    -8.2629    56.3833   228.0000 </r>
       <r>    -8.1606     0.0000   228.0000 </r>
       <r>    -8.0583     0.0000   228.0000 </r>
       <r>    -7.9560     0.0000   228.0000 </r>
       <r>    -7.8538     6.1957   228.6337 </r>
       <r>    -7.7515    20.4879   231.0287 </r>
       <r>    -7.6492     6.1921   232.0000 </r>
       <r>    -7.5469     0.0000   232.0000 </r>
       <r>    -7.4447     0.0000   232.0000 </r>
       <r>    -7.3424     0.0000   232.0000 </r>
       <r>    -7.2401     0.0000   232.0000 </r>
       <r>    -7.1378     0.0000   232.0000 </r>
       <r>    -7.0356     0.0000   232.0000 </r>
       <r>    -6.9333    33.5080   235.4270 </r>
       <r>    -6.8310    12.4752   237.1426 </r>
       <r>    -6.7287    19.2867   239.2725 </r>
       <r>    -6.6265     0.0000   240.0000 </r>
       <r>    -6.5242     0.0000   240.0000 </r>
       <r>    -6.4219    46.1391   244.7189 </r>
       <r>    -6.3196    26.5336   248.7137 </r>
       <r>    -6.2174    32.5586   253.6300 </r>
       <r>    -6.1151     5.9860   254.4122 </r>
       <r>    -6.0128     5.3450   255.1800 </r>
       <r>    -5.9105     2.6208   255.5347 </r>
       <r>    -5.8083    23.1402   258.0000 </r>
       <r>    -5.7060     0.0000   258.0000 </r>
       <r>    -5.6037     0.0000   258.0000 </r>
       <r>    -5.5014     4.0922   258.4185 </r>
       <r>    -5.3992     3.4266   258.8505 </r>
       <r>    -5.2969     9.3605   259.8907 </r>
       <r>    -5.1946    10.2795   261.2180 </r>
       <r>    -5.0923    25.0957   264.0000 </r>
       <r>    -4.9901     0.0000   264.0000 </r>
       <r>    -4.8878     0.0000   264.0000 </r>
       <r>    -4.7855     0.0000   264.0000 </r>
       <r>    -4.6832     0.0000   264.0000 </r>
       <r>    -4.5810     0.0000   264.0000 </r>
       <r>    -4.4787     0.0000   264.0000 </r>
       <r>    -4.3764     0.0000   264.0000 </r>
       <r>    -4.2741    58.6653   270.0000 </r>
       <r>    -4.1719     0.0000   270.0000 </r>
       <r>    -4.0696     0.0000   270.0000 </r>
       <r>    -3.9673     0.0000   270.0000 </r>
       <r>    -3.8650     0.0000   270.0000 </r>
       <r>    -3.7628     0.0000   270.0000 </r>
       <r>    -3.6605     0.0000   270.0000 </r>
       <r>    -3.5582     0.0000   270.0000 </r>
       <r>    -3.4559     0.0000   270.0000 </r>
       <r>    -3.3537     0.0000   270.0000 </r>
       <r>    -3.2514     0.0007   270.0001 </r>
       <r>    -3.1491    36.0233   273.6844 </r>
       <r>    -3.0468    11.9249   275.3197 </r>
       <r>    -2.9446     4.8885   276.0000 </r>
       <r>    -2.8423     0.0000   276.0000 </r>
       <r>    -2.7400     0.0000   276.0000 </r>
       <r>    -2.6377     0.0000   276.0000 </r>
       <r>    -2.5355     0.0000   276.0000 </r>
       <r>    -2.4332     0.0000   276.0000 </r>
       <r>    -2.3309     0.0000   276.0000 </r>
       <r>    -2.2286     0.0000   276.0000 </r>
       <r>    -2.1264    25.0929   278.5664 </r>
       <r>    -2.0241     3.2088   278.9949 </r>
       <r>    -1.9218     7.5836   279.9090 </r>
       <r>    -1.8195     6.8129   280.7968 </r>
       <r>    -1.7173     2.9925   281.3061 </r>
       <r>    -1.6150     5.3480   281.9470 </r>
       <r>    -1.5127     0.0000   282.0000 </r>
       <r>    -1.4104     0.0000   282.0000 </r>
       <r>    -1.3082     0.0000   282.0000 </r>
       <r>    -1.2059     0.0000   282.0000 </r>
       <r>    -1.1036     0.0000   282.0000 </r>
       <r>    -1.0013     0.0000   282.0000 </r>
       <r>    -0.8991     0.0000   282.0000 </r>
       <r>    -0.7968     0.0000   282.0000 </r>
       <r>    -0.6945     0.0000   282.0000 </r>
       <r>    -0.5922     6.1465   282.6286 </r>
       <r>    -0.4900     3.9003   284.6989 </r>
       <r>    -0.3877    19.1585   287.2261 </r>
       <r>    -0.2854    19.4327   290.3208 </r>
       <r>    -0.1831    14.4897   292.7153 </r>
       <r>    -0.0809    17.7079   294.7777 </r>
       <r>     0.0214    18.5188   297.1941 </r>
       <r>     0.1237    47.3375   307.5752 </r>
       <r>     0.2260     4.8195   308.3263 </r>
       <r>     0.3282    17.2739   310.3000 </r>
       <r>     0.4305    22.5103   313.1689 </r>
       <r>     0.5328    23.9381   316.0149 </r>
       <r>     0.6351    22.5928   319.1107 </r>
       <r>     0.7373    36.4979   324.7329 </r>
       <r>     0.8396    60.8501   332.1902 </r>
       <r>     0.9419    54.4508   339.9024 </r>
       <r>     1.0442    58.2941   347.6288 </r>
       <r>     1.1464    22.1851   350.9024 </r>
       <r>     1.2487     3.9108   352.0000 </r>
       <r>     1.3510     0.0000   352.0000 </r>
       <r>     1.4533     0.0000   352.0000 </r>
       <r>     1.5555     0.0000   352.0000 </r>
       <r>     1.6578     0.0000   352.0000 </r>
       <r>     1.7601     0.0000   352.0000 </r>
       <r>     1.8624     0.0000   352.0000 </r>
       <r>     1.9646     0.0000   352.0000 </r>
       <r>     2.0669     0.0000   352.0000 </r>
       <r>     2.1692     0.0000   352.0000 </r>
       <r>     2.2715     0.0000   352.0000 </r>
       <r>     2.3737     0.0000   352.0000 </r>
       <r>     2.4760     0.0000   352.0000 </r>
       <r>     2.5783     0.0000   352.0000 </r>
      </set>
     </set>
    </array>
   </total>
  </dos>
 </calculation>
 <structure name="finalpos" >
  <crystal>
   <varray name="basis" >
    <v>      22.35440346      -0.00005095       0.00000000 </v>
    <v>     -11.17724594      19.36114769       0.00000000 </v>
    <v>       0.00000000       0.00000000      20.00000000 </v>
   </varray>
   <i name="volume">   8656.12675094 </i>
   <varray name="rec_basis" >
    <v>       0.04473397       0.02582505       0.00000000 </v>
    <v>       0.00000012       0.05164990       0.00000000 </v>
    <v>       0.00000000       0.00000000       0.05000000 </v>
   </varray>
  </crystal>
  <varray name="positions" >
   <v>       0.95081327       0.42845776       0.00128211 </v>
   <v>       0.92888251       0.47766625       0.99509317 </v>
   <v>       0.90139814       0.35588255       0.00155541 </v>
   <v>       0.02281473       0.45183381       0.00637750 </v>
   <v>       0.76094381       0.13642176       0.00804302 </v>
   <v>       0.80307684       0.20840879       0.00828245 </v>
   <v>       0.87548635       0.23908385       0.00803003 </v>
   <v>       0.90534587       0.19695513       0.00834217 </v>
   <v>       0.86361511       0.12455547       0.00810352 </v>
   <v>       0.79162261       0.09469299       0.00835855 </v>
   <v>       0.57155443       0.02235985       0.00128032 </v>
   <v>       0.64414176       0.04553406       0.00154837 </v>
   <v>       0.97766360       0.04921165       0.00134978 </v>
   <v>       0.04878984       0.07110729       0.99508719 </v>
   <v>       0.07096118       0.02278245       0.99354195 </v>
   <v>       0.95451261       0.09864024       0.00163638 </v>
   <v>       0.47765629       0.04877728       0.00491044 </v>
   <v>       0.54816144       0.07097228       0.00638096 </v>
   <v>       0.23905619       0.86357824       0.99195698 </v>
   <v>       0.19692316       0.79159121       0.99171755 </v>
   <v>       0.12451365       0.76091615       0.99196997 </v>
   <v>       0.09465413       0.80304487       0.99165783 </v>
   <v>       0.13638489       0.87544453       0.99189648 </v>
   <v>       0.20837739       0.90530701       0.99164145 </v>
   <v>       0.52234371       0.95122272       0.99508956 </v>
   <v>       0.45183856       0.92902772       0.99361904 </v>
   <v>       0.97718527       0.54816619       0.99362250 </v>
   <v>       0.42844557       0.97764015       0.99871968 </v>
   <v>       0.35585824       0.95446594       0.99845163 </v>
   <v>       0.02233640       0.95078835       0.99865022 </v>
   <v>       0.95121016       0.92889271       0.00491281 </v>
   <v>       0.92903882       0.97721755       0.00645805 </v>
   <v>       0.04548739       0.90135976       0.99836362 </v>
   <v>       0.04918673       0.57154224       0.99871789 </v>
   <v>       0.07111749       0.52233375       0.00490683 </v>
   <v>       0.09860186       0.64411745       0.99844459 </v>
   <v>       0.85660122       0.49808845       0.98676753 </v>
   <v>       0.84688636       0.34101128       0.99558076 </v>
   <v>       0.00374019       0.35884349       0.01228808 </v>
   <v>       0.96151293       0.22224109       0.00911004 </v>
   <v>       0.77777534       0.23928083       0.00899402 </v>
   <v>       0.14149807       0.14335400       0.98673564 </v>
   <v>       0.99416095       0.15313885       0.99559212 </v>
   <v>       0.49807789       0.14147336       0.01323512 </v>
   <v>       0.64115431       0.14488747       0.01229925 </v>
   <v>       0.76075060       0.03852388       0.00914908 </v>
   <v>       0.14484763       0.00367095       0.98756051 </v>
   <v>       0.03848707       0.77775891       0.99088996 </v>
   <v>       0.23924940       0.96147612       0.99085092 </v>
   <v>       0.22222466       0.76071917       0.99100598 </v>
   <v>       0.35884569       0.85511253       0.98770075 </v>
   <v>       0.50192211       0.85852664       0.98676488 </v>
   <v>       0.65901707       0.00589921       0.99553522 </v>
   <v>       0.99625981       0.64115651       0.98771192 </v>
   <v>       0.34098293       0.99410079       0.00446478 </v>
   <v>       0.85850193       0.85664600       0.01326436 </v>
   <v>       0.85515237       0.99632905       0.01243949 </v>
   <v>       0.00583905       0.84686115       0.00440788 </v>
   <v>       0.14339878       0.50191155       0.01323247 </v>
   <v>       0.15311364       0.65898872       0.00441924 </v>
   <v>       0.92163969       0.31058407       0.00790277 </v>
   <v>       0.68943950       0.11106790       0.00794362 </v>
   <v>       0.88897643       0.07841512       0.00804569 </v>
   <v>       0.31056050       0.88893210       0.99205638 </v>
   <v>       0.07836031       0.68941593       0.99209723 </v>
   <v>       0.11102357       0.92158488       0.99195431 </v>
   <v>       0.85995914       0.45617202       0.99065138 </v>
   <v>       0.04731180       0.40751449       0.01241864 </v>
   <v>       0.09623600       0.14002127       0.99064933 </v>
   <v>       0.59248293       0.13978588       0.01241970 </v>
   <v>       0.13976250       0.04725002       0.98742365 </v>
   <v>       0.45616572       0.09620239       0.00934297 </v>
   <v>       0.40751707       0.86021412       0.98758030 </v>
   <v>       0.54383428       0.90379761       0.99065703 </v>
   <v>       0.95268820       0.59248551       0.98758136 </v>
   <v>       0.90376400       0.85997873       0.00935067 </v>
   <v>       0.86023750       0.95274998       0.01257635 </v>
   <v>       0.14004086       0.54382798       0.00934862 </v>
  </varray>
 </structure>
</modeling>
