<?xml version="1.0" encoding="ISO-8859-1"?>
<modeling>
 <generator>
  <i name="program" type="string">vasp </i>
  <i name="version" type="string">5.4.4.18Apr17-6-g9f103f2a35  </i>
  <i name="subversion" type="string">(build Jun 07 2020 16:50:00) complex            parallel </i>
  <i name="platform" type="string">LinuxIFC </i>
  <i name="date" type="string">2023 03 01 </i>
  <i name="time" type="string">09:48:48 </i>
 </generator>
 <incar>
  <i type="string" name="SYSTEM">Simulation for cell shape cell volume r</i>
  <i type="int" name="ISTART">     1</i>
  <i type="string" name="PREC">high</i>
  <i type="string" name="ALGO">48</i>
  <i type="int" name="ICHARG">    11</i>
  <i type="int" name="NELM">   200</i>
  <i type="int" name="IBRION">    -1</i>
  <i name="EDIFF">      0.00001000</i>
  <i name="EDIFFG">     -0.01000000</i>
  <i type="int" name="NSW">     0</i>
  <i type="int" name="ISIF">     2</i>
  <i name="ENCUT">    500.00000000</i>
  <i name="POTIM">      0.30000000</i>
  <i type="string" name="LREAL">A</i>
  <i type="int" name="ISMEAR">     0</i>
  <i name="SIGMA">      0.01000000</i>
  <i type="int" name="NWRITE">     0</i>
  <i type="logical" name="LWAVE"> F  </i>
  <i type="logical" name="LCHARG"> F  </i>
  <v type="int" name="KPOINT_BSE">    -1     0     0     0</v>
  <i type="int" name="NELM">   200</i>
  <i type="string" name="GGA">PE</i>
 </incar>
 <structure name="primitive_cell" >
  <crystal>
   <varray name="basis" >
    <v>      14.92158528       0.00049688       0.00000000 </v>
    <v>      -7.46036279      12.92233364       0.00000000 </v>
    <v>       0.00000000       0.00000000      20.00000000 </v>
   </varray>
   <i name="volume">   3856.50820775 </i>
   <varray name="rec_basis" >
    <v>       0.06701572       0.03868973       0.00000000 </v>
    <v>      -0.00000258       0.07738392       0.00000000 </v>
    <v>       0.00000000       0.00000000       0.05000000 </v>
   </varray>
  </crystal>
  <varray name="positions" >
   <v>      -0.05525491      -0.47314440       0.44509658 </v>
   <v>       0.05231147      -0.42409165       0.45176041 </v>
   <v>      -0.11609553       0.44624078       0.49034645 </v>
   <v>      -0.10093041      -0.44048581       0.38935580 </v>
   <v>       0.10031641      -0.36325080       0.41615010 </v>
   <v>      -0.04541912      -0.40615812       0.34806063 </v>
   <v>      -0.17253239       0.49412097       0.36969204 </v>
   <v>      -0.12027123      -0.38185146       0.40608221 </v>
   <v>      -0.06605905       0.41941686      -0.46079412 </v>
   <v>       0.10233371      -0.45090783      -0.49937550 </v>
   <v>      -0.23094048       0.38789737       0.48832291 </v>
   <v>       0.04150849       0.46852338      -0.45410034 </v>
   <v>      -0.24852678      -0.47686912       0.48888876 </v>
   <v>      -0.28853133       0.43878465       0.48836211 </v>
   <v>      -0.11404864       0.35857964      -0.42517025 </v>
   <v>      -0.28413907       0.27934701       0.48834098 </v>
   <v>       0.21716745      -0.39254892      -0.49733206 </v>
   <v>      -0.23979746       0.23934665       0.48888200 </v>
   <v>       0.22591889      -0.24404829      -0.49784899 </v>
   <v>       0.08726119       0.43607908      -0.39828135 </v>
   <v>       0.27031494      -0.28400480      -0.49732957 </v>
   <v>      -0.39708160       0.38343184       0.48838843 </v>
   <v>       0.03170538       0.40164059      -0.35702124 </v>
   <v>       0.27478975      -0.44340215      -0.49739543 </v>
   <v>      -0.39260732       0.22176057       0.48834475 </v>
   <v>       0.15872214      -0.49836053      -0.37860837 </v>
   <v>       0.10689653       0.37764089      -0.41495877 </v>
   <v>       0.23479925       0.47224333      -0.49793690 </v>
   <v>      -0.34450336       0.16343037       0.36982274 </v>
   <v>      -0.44795410       0.27496642       0.48843127 </v>
   <v>      -0.36779980      -0.47033104      -0.42515172 </v>
   <v>      -0.27296094       0.11095141       0.40624970 </v>
   <v>      -0.45544427       0.43990945       0.49039708 </v>
   <v>       0.37878441      -0.22638120      -0.49735423 </v>
   <v>       0.25917556      -0.11565542      -0.41504933 </v>
   <v>      -0.42862423      -0.48318727      -0.46079163 </v>
   <v>      -0.35084616       0.09175435       0.38944848 </v>
   <v>       0.49685686       0.33568084       0.36972824 </v>
   <v>       0.38333725      -0.38800782      -0.49740318 </v>
   <v>      -0.44913431       0.10691495       0.49034599 </v>
   <v>       0.46770417       0.23063561       0.48905122 </v>
   <v>       0.33094725      -0.16797245      -0.37875897 </v>
   <v>       0.43417230      -0.27954006      -0.49741531 </v>
   <v>       0.46397143       0.42010627       0.44512260 </v>
   <v>      -0.42930577       0.04606526       0.44513050 </v>
   <v>       0.33716297      -0.09635248      -0.39839079 </v>
   <v>       0.35409657       0.46577929       0.41608685 </v>
   <v>       0.43523083      -0.11154553      -0.49940829 </v>
   <v>      -0.37201093       0.03629208       0.34813141 </v>
   <v>       0.43137378       0.34171023       0.38941248 </v>
   <v>       0.41542257      -0.05069650      -0.45418626 </v>
   <v>      -0.47768279      -0.42466666      -0.45417597 </v>
   <v>       0.47389533       0.05687541      -0.46087057 </v>
   <v>       0.46093965       0.10486661      -0.42530549 </v>
   <v>       0.44172295      -0.44446465      -0.49944400 </v>
   <v>      -0.41050178      -0.36732941      -0.35721509 </v>
   <v>       0.41491568       0.47863425       0.45173200 </v>
   <v>       0.37295328       0.26370952       0.40620682 </v>
   <v>       0.35848384      -0.04083464      -0.35709507 </v>
   <v>       0.39682968       0.36269143       0.34814783 </v>
   <v>      -0.38671377      -0.26829054      -0.41522838 </v>
   <v>      -0.48149361      -0.23516305      -0.49798738 </v>
   <v>      -0.48784940      -0.06150921       0.45177289 </v>
   <v>      -0.47497151      -0.10952495       0.41618059 </v>
   <v>      -0.44508308      -0.34631150      -0.39843603 </v>
   <v>       0.48942666      -0.34035359      -0.37868662 </v>
  </varray>
 </structure>
 <varray name="primitive_index" >
  <v type="int" >        1 </v>
  <v type="int" >       25 </v>
  <v type="int" >        4 </v>
  <v type="int" >        3 </v>
  <v type="int" >       54 </v>
  <v type="int" >       37 </v>
  <v type="int" >       55 </v>
  <v type="int" >       38 </v>
  <v type="int" >        2 </v>
  <v type="int" >       34 </v>
  <v type="int" >        5 </v>
  <v type="int" >       35 </v>
  <v type="int" >       42 </v>
  <v type="int" >        6 </v>
  <v type="int" >       39 </v>
  <v type="int" >       10 </v>
  <v type="int" >       11 </v>
  <v type="int" >       41 </v>
  <v type="int" >       44 </v>
  <v type="int" >       36 </v>
  <v type="int" >       16 </v>
  <v type="int" >        7 </v>
  <v type="int" >       66 </v>
  <v type="int" >       12 </v>
  <v type="int" >        9 </v>
  <v type="int" >       64 </v>
  <v type="int" >       65 </v>
  <v type="int" >       45 </v>
  <v type="int" >       47 </v>
  <v type="int" >        8 </v>
  <v type="int" >       60 </v>
  <v type="int" >       49 </v>
  <v type="int" >       21 </v>
  <v type="int" >       15 </v>
  <v type="int" >       58 </v>
  <v type="int" >       32 </v>
  <v type="int" >       20 </v>
  <v type="int" >       51 </v>
  <v type="int" >       13 </v>
  <v type="int" >       17 </v>
  <v type="int" >       40 </v>
  <v type="int" >       57 </v>
  <v type="int" >       14 </v>
  <v type="int" >       22 </v>
  <v type="int" >       18 </v>
  <v type="int" >       29 </v>
  <v type="int" >       50 </v>
  <v type="int" >       26 </v>
  <v type="int" >       48 </v>
  <v type="int" >       24 </v>
  <v type="int" >       27 </v>
  <v type="int" >       31 </v>
  <v type="int" >       28 </v>
  <v type="int" >       56 </v>
  <v type="int" >       30 </v>
  <v type="int" >       63 </v>
  <v type="int" >       23 </v>
  <v type="int" >       53 </v>
  <v type="int" >       59 </v>
  <v type="int" >       52 </v>
  <v type="int" >       62 </v>
  <v type="int" >       43 </v>
  <v type="int" >       19 </v>
  <v type="int" >       46 </v>
  <v type="int" >       33 </v>
  <v type="int" >       61 </v>
 </varray>
 <kpoints>
  <generation param="listgenerated">
   <i name="divisions" type="int">      20 </i>
   <v>       0.00000000       0.00000000       0.00000000 </v>
   <v>       0.50000000       0.00000000       0.00000000 </v>
   <v>       0.33333333       0.33333333       0.00000000 </v>
   <v>       0.00000000       0.00000000       0.00000000 </v>
  </generation>
  <varray name="kpointlist" >
   <v>       0.00000000       0.00000000       0.00000000 </v>
   <v>       0.02631579       0.00000000       0.00000000 </v>
   <v>       0.05263158       0.00000000       0.00000000 </v>
   <v>       0.07894737       0.00000000       0.00000000 </v>
   <v>       0.10526316       0.00000000       0.00000000 </v>
   <v>       0.13157895       0.00000000       0.00000000 </v>
   <v>       0.15789474       0.00000000       0.00000000 </v>
   <v>       0.18421053       0.00000000       0.00000000 </v>
   <v>       0.21052632       0.00000000       0.00000000 </v>
   <v>       0.23684211       0.00000000       0.00000000 </v>
   <v>       0.26315789       0.00000000       0.00000000 </v>
   <v>       0.28947368       0.00000000       0.00000000 </v>
   <v>       0.31578947       0.00000000       0.00000000 </v>
   <v>       0.34210526       0.00000000       0.00000000 </v>
   <v>       0.36842105       0.00000000       0.00000000 </v>
   <v>       0.39473684       0.00000000       0.00000000 </v>
   <v>       0.42105263       0.00000000       0.00000000 </v>
   <v>       0.44736842       0.00000000       0.00000000 </v>
   <v>       0.47368421       0.00000000       0.00000000 </v>
   <v>       0.50000000       0.00000000       0.00000000 </v>
   <v>       0.50000000       0.00000000       0.00000000 </v>
   <v>       0.49122807       0.01754386       0.00000000 </v>
   <v>       0.48245614       0.03508772       0.00000000 </v>
   <v>       0.47368421       0.05263158       0.00000000 </v>
   <v>       0.46491228       0.07017544       0.00000000 </v>
   <v>       0.45614035       0.08771930       0.00000000 </v>
   <v>       0.44736842       0.10526316       0.00000000 </v>
   <v>       0.43859649       0.12280702       0.00000000 </v>
   <v>       0.42982456       0.14035088       0.00000000 </v>
   <v>       0.42105263       0.15789474       0.00000000 </v>
   <v>       0.41228070       0.17543860       0.00000000 </v>
   <v>       0.40350877       0.19298246       0.00000000 </v>
   <v>       0.39473684       0.21052632       0.00000000 </v>
   <v>       0.38596491       0.22807018       0.00000000 </v>
   <v>       0.37719298       0.24561404       0.00000000 </v>
   <v>       0.36842105       0.26315789       0.00000000 </v>
   <v>       0.35964912       0.28070175       0.00000000 </v>
   <v>       0.35087719       0.29824561       0.00000000 </v>
   <v>       0.34210526       0.31578947       0.00000000 </v>
   <v>       0.33333333       0.33333333       0.00000000 </v>
   <v>       0.33333333       0.33333333       0.00000000 </v>
   <v>       0.31578947       0.31578947       0.00000000 </v>
   <v>       0.29824561       0.29824561       0.00000000 </v>
   <v>       0.28070175       0.28070175       0.00000000 </v>
   <v>       0.26315789       0.26315789       0.00000000 </v>
   <v>       0.24561404       0.24561404       0.00000000 </v>
   <v>       0.22807018       0.22807018       0.00000000 </v>
   <v>       0.21052632       0.21052632       0.00000000 </v>
   <v>       0.19298246       0.19298246       0.00000000 </v>
   <v>       0.17543860       0.17543860       0.00000000 </v>
   <v>       0.15789474       0.15789474       0.00000000 </v>
   <v>       0.14035088       0.14035088       0.00000000 </v>
   <v>       0.12280702       0.12280702       0.00000000 </v>
   <v>       0.10526316       0.10526316       0.00000000 </v>
   <v>       0.08771930       0.08771930       0.00000000 </v>
   <v>       0.07017544       0.07017544       0.00000000 </v>
   <v>       0.05263158       0.05263158       0.00000000 </v>
   <v>       0.03508772       0.03508772       0.00000000 </v>
   <v>       0.01754386       0.01754386       0.00000000 </v>
   <v>       0.00000000       0.00000000       0.00000000 </v>
  </varray>
  <varray name="weights" >
   <v>       0.01666667 </v>
   <v>       0.01666667 </v>
   <v>       0.01666667 </v>
   <v>       0.01666667 </v>
   <v>       0.01666667 </v>
   <v>       0.01666667 </v>
   <v>       0.01666667 </v>
   <v>       0.01666667 </v>
   <v>       0.01666667 </v>
   <v>       0.01666667 </v>
   <v>       0.01666667 </v>
   <v>       0.01666667 </v>
   <v>       0.01666667 </v>
   <v>       0.01666667 </v>
   <v>       0.01666667 </v>
   <v>       0.01666667 </v>
   <v>       0.01666667 </v>
   <v>       0.01666667 </v>
   <v>       0.01666667 </v>
   <v>       0.01666667 </v>
   <v>       0.01666667 </v>
   <v>       0.01666667 </v>
   <v>       0.01666667 </v>
   <v>       0.01666667 </v>
   <v>       0.01666667 </v>
   <v>       0.01666667 </v>
   <v>       0.01666667 </v>
   <v>       0.01666667 </v>
   <v>       0.01666667 </v>
   <v>       0.01666667 </v>
   <v>       0.01666667 </v>
   <v>       0.01666667 </v>
   <v>       0.01666667 </v>
   <v>       0.01666667 </v>
   <v>       0.01666667 </v>
   <v>       0.01666667 </v>
   <v>       0.01666667 </v>
   <v>       0.01666667 </v>
   <v>       0.01666667 </v>
   <v>       0.01666667 </v>
   <v>       0.01666667 </v>
   <v>       0.01666667 </v>
   <v>       0.01666667 </v>
   <v>       0.01666667 </v>
   <v>       0.01666667 </v>
   <v>       0.01666667 </v>
   <v>       0.01666667 </v>
   <v>       0.01666667 </v>
   <v>       0.01666667 </v>
   <v>       0.01666667 </v>
   <v>       0.01666667 </v>
   <v>       0.01666667 </v>
   <v>       0.01666667 </v>
   <v>       0.01666667 </v>
   <v>       0.01666667 </v>
   <v>       0.01666667 </v>
   <v>       0.01666667 </v>
   <v>       0.01666667 </v>
   <v>       0.01666667 </v>
   <v>       0.01666667 </v>
  </varray>
 </kpoints>
 <parameters>
  <separator name="general" >
   <i type="string" name="SYSTEM">Simulation for cell shape cell volume r</i>
   <i type="logical" name="LCOMPAT"> F  </i>
  </separator>
  <separator name="electronic" >
   <i type="string" name="PREC">high</i>
   <i name="ENMAX">    500.00000000</i>
   <i name="ENAUG">    644.87300000</i>
   <i name="EDIFF">      0.00001000</i>
   <i type="int" name="IALGO">    38</i>
   <i type="int" name="IWAVPR">    10</i>
   <i type="int" name="NBANDS">   128</i>
   <i name="NELECT">    174.00000000</i>
   <i type="int" name="TURBO">     0</i>
   <i type="int" name="IRESTART">     0</i>
   <i type="int" name="NREBOOT">     0</i>
   <i type="int" name="NMIN">     0</i>
   <i name="EREF">      0.00000000</i>
   <separator name="electronic smearing" >
    <i type="int" name="ISMEAR">     0</i>
    <i name="SIGMA">      0.01000000</i>
    <i name="KSPACING">      0.50000000</i>
    <i type="logical" name="KGAMMA"> T  </i>
   </separator>
   <separator name="electronic projectors" >
    <i type="logical" name="LREAL"> T  </i>
    <v name="ROPT">     -0.00040000     -0.00040000</v>
    <i type="int" name="LMAXPAW">  -100</i>
    <i type="int" name="LMAXMIX">     2</i>
    <i type="logical" name="NLSPLINE"> F  </i>
   </separator>
   <separator name="electronic startup" >
    <i type="int" name="ISTART">     1</i>
    <i type="int" name="ICHARG">    11</i>
    <i type="int" name="INIWAV">     1</i>
   </separator>
   <separator name="electronic spin" >
    <i type="int" name="ISPIN">     1</i>
    <i type="logical" name="LNONCOLLINEAR"> F  </i>
    <v name="MAGMOM">      1.00000000      1.00000000      1.00000000      1.00000000      1.00000000      1.00000000      1.00000000      1.00000000      1.00000000      1.00000000      1.00000000      1.00000000      1.00000000      1.00000000      1.00000000      1.00000000      1.00000000      1.00000000      1.00000000      1.00000000
      1.00000000      1.00000000      1.00000000      1.00000000      1.00000000      1.00000000      1.00000000      1.00000000      1.00000000      1.00000000      1.00000000      1.00000000      1.00000000      1.00000000      1.00000000      1.00000000      1.00000000      1.00000000      1.00000000      1.00000000
      1.00000000      1.00000000      1.00000000      1.00000000      1.00000000      1.00000000      1.00000000      1.00000000      1.00000000      1.00000000      1.00000000      1.00000000      1.00000000      1.00000000      1.00000000      1.00000000      1.00000000      1.00000000      1.00000000      1.00000000
      1.00000000      1.00000000      1.00000000      1.00000000      1.00000000      1.00000000</v>
    <i name="NUPDOWN">     -1.00000000</i>
    <i type="logical" name="LSORBIT"> F  </i>
    <v name="SAXIS">      0.00000000      0.00000000      1.00000000</v>
    <i type="logical" name="LSPIRAL"> F  </i>
    <v name="QSPIRAL">      0.00000000      0.00000000      0.00000000</v>
    <i type="logical" name="LZEROZ"> F  </i>
   </separator>
   <separator name="electronic exchange-correlation" >
    <i type="logical" name="LASPH"> F  </i>
    <i type="logical" name="LMETAGGA"> F  </i>
   </separator>
   <separator name="electronic convergence" >
    <i type="int" name="NELM">   200</i>
    <i type="int" name="NELMDL">     0</i>
    <i type="int" name="NELMIN">     2</i>
    <i name="ENINI">    500.00000000</i>
    <separator name="electronic convergence detail" >
     <i type="logical" name="LDIAG"> T  </i>
     <i type="logical" name="LSUBROT"> F  </i>
     <i name="WEIMIN">      0.00000000</i>
     <i name="EBREAK">      0.00000002</i>
     <i name="DEPER">      0.30000000</i>
     <i type="int" name="NRMM">     4</i>
     <i name="TIME">      0.40000000</i>
    </separator>
   </separator>
   <separator name="electronic mixer" >
    <i name="AMIX">      0.40000000</i>
    <i name="BMIX">      1.00000000</i>
    <i name="AMIN">      0.10000000</i>
    <i name="AMIX_MAG">      1.60000000</i>
    <i name="BMIX_MAG">      1.00000000</i>
    <separator name="electronic mixer details" >
     <i type="int" name="IMIX">     4</i>
     <i type="logical" name="MIXFIRST"> F  </i>
     <i type="int" name="MAXMIX">   -45</i>
     <i name="WC">    100.00000000</i>
     <i type="int" name="INIMIX">     1</i>
     <i type="int" name="MIXPRE">     1</i>
     <i type="int" name="MREMOVE">     5</i>
    </separator>
   </separator>
   <separator name="electronic dipolcorrection" >
    <i type="logical" name="LDIPOL"> F  </i>
    <i type="logical" name="LMONO"> F  </i>
    <i type="int" name="IDIPOL">     0</i>
    <i name="EPSILON">      1.00000000</i>
    <v name="DIPOL">   -100.00000000   -100.00000000   -100.00000000</v>
    <i name="EFIELD">      0.00000000</i>
   </separator>
  </separator>
  <separator name="grids" >
   <i type="int" name="NGX">   112</i>
   <i type="int" name="NGY">   112</i>
   <i type="int" name="NGZ">   150</i>
   <i type="int" name="NGXF">   168</i>
   <i type="int" name="NGYF">   168</i>
   <i type="int" name="NGZF">   224</i>
   <i type="logical" name="ADDGRID"> F  </i>
  </separator>
  <separator name="ionic" >
   <i type="int" name="NSW">     0</i>
   <i type="int" name="IBRION">    -1</i>
   <i type="int" name="MDALGO">     0</i>
   <i type="int" name="ISIF">     2</i>
   <i name="PSTRESS">      0.00000000</i>
   <i name="EDIFFG">     -0.01000000</i>
   <i type="int" name="NFREE">     0</i>
   <i name="POTIM">      0.30000000</i>
   <i name="SMASS">     -3.00000000</i>
   <i name="SCALEE">      1.00000000</i>
  </separator>
  <separator name="ionic md" >
   <i name="TEBEG">      0.00010000</i>
   <i name="TEEND">      0.00010000</i>
   <i type="int" name="NBLOCK">     1</i>
   <i type="int" name="KBLOCK">     1</i>
   <i type="int" name="NPACO">   256</i>
   <i name="APACO">     16.00000000</i>
  </separator>
  <separator name="symmetry" >
   <i type="int" name="ISYM">     2</i>
   <i name="SYMPREC">      0.00001000</i>
  </separator>
  <separator name="dos" >
   <i type="int" name="LORBIT">     0</i>
   <v name="RWIGS">     -1.00000000     -1.00000000</v>
   <i type="int" name="NEDOS">   301</i>
   <i name="EMIN">     10.00000000</i>
   <i name="EMAX">    -10.00000000</i>
   <i name="EFERMI">      0.00000000</i>
  </separator>
  <separator name="writing" >
   <i type="int" name="NWRITE">     0</i>
   <i type="logical" name="LWAVE"> F  </i>
   <i type="logical" name="LDOWNSAMPLE"> F  </i>
   <i type="logical" name="LCHARG"> F  </i>
   <i type="logical" name="LPARD"> F  </i>
   <i type="logical" name="LVTOT"> F  </i>
   <i type="logical" name="LVHAR"> F  </i>
   <i type="logical" name="LELF"> F  </i>
   <i type="logical" name="LOPTICS"> F  </i>
   <v name="STM">      0.00000000      0.00000000      0.00000000      0.00000000      0.00000000      0.00000000      0.00000000</v>
  </separator>
  <separator name="performance" >
   <i type="int" name="NPAR">    16</i>
   <i type="int" name="NSIM">     4</i>
   <i type="int" name="NBLK">    -1</i>
   <i type="logical" name="LPLANE"> T  </i>
   <i type="logical" name="LSCALAPACK"> T  </i>
   <i type="logical" name="LSCAAWARE"> F  </i>
   <i type="logical" name="LSCALU"> F  </i>
   <i type="logical" name="LASYNC"> F  </i>
   <i type="logical" name="LORBITALREAL"> F  </i>
  </separator>
  <separator name="miscellaneous" >
   <i type="int" name="IDIOT">     3</i>
   <i type="int" name="ISPECIAL">     0</i>
   <i type="logical" name="LMUSIC"> F  </i>
   <v name="POMASS">     12.01100000      1.00000000</v>
   <v name="DARWINR">      0.00000000      0.00000000</v>
   <v name="DARWINV">      1.00000000      1.00000000</v>
   <i type="logical" name="LCORR"> T  </i>
  </separator>
  <i type="logical" name="GGA_COMPAT"> T  </i>
  <i type="logical" name="LBERRY"> F  </i>
  <i type="int" name="ICORELEVEL">     0</i>
  <i type="logical" name="LDAU"> F  </i>
  <i type="int" name="I_CONSTRAINED_M">     0</i>
  <separator name="electronic exchange-correlation" >
   <i type="string" name="GGA">PE</i>
   <i type="int" name="VOSKOWN">     0</i>
   <i type="logical" name="LHFCALC"> F  </i>
   <i type="string" name="PRECFOCK"></i>
   <i type="logical" name="LSYMGRAD"> F  </i>
   <i type="logical" name="LHFONE"> F  </i>
   <i type="logical" name="LRHFCALC"> F  </i>
   <i type="logical" name="LTHOMAS"> F  </i>
   <i type="logical" name="LMODELHF"> F  </i>
   <i name="ENCUT4O">     -1.00000000</i>
   <i type="int" name="EXXOEP">     0</i>
   <i type="int" name="FOURORBIT">     0</i>
   <i name="AEXX">      0.00000000</i>
   <i name="HFALPHA">      0.00000000</i>
   <i name="MCALPHA">      0.00000000</i>
   <i name="ALDAX">      1.00000000</i>
   <i name="AGGAX">      1.00000000</i>
   <i name="ALDAC">      1.00000000</i>
   <i name="AGGAC">      1.00000000</i>
   <i type="int" name="NKREDX">     1</i>
   <i type="int" name="NKREDY">     1</i>
   <i type="int" name="NKREDZ">     1</i>
   <i type="logical" name="SHIFTRED"> F  </i>
   <i type="logical" name="ODDONLY"> F  </i>
   <i type="logical" name="EVENONLY"> F  </i>
   <i type="int" name="LMAXFOCK">     0</i>
   <i type="int" name="NMAXFOCKAE">     0</i>
   <i type="logical" name="LFOCKAEDFT"> F  </i>
   <i name="HFSCREEN">      0.00000000</i>
   <i name="HFSCREENC">      0.00000000</i>
   <i type="int" name="NBANDSGWLOW">     0</i>
  </separator>
  <separator name="vdW DFT" >
   <i type="logical" name="LUSE_VDW"> F  </i>
   <i name="Zab_VDW">     -0.84910000</i>
   <i name="PARAM1">      0.12340000</i>
   <i name="PARAM2">      1.00000000</i>
   <i name="PARAM3">      0.00000000</i>
  </separator>
  <separator name="model GW" >
   <i type="int" name="MODEL_GW">     0</i>
   <i name="MODEL_EPS0">     35.05916552</i>
   <i name="MODEL_ALPHA">      1.00000000</i>
  </separator>
  <separator name="linear response parameters" >
   <i type="logical" name="LEPSILON"> F  </i>
   <i type="logical" name="LRPA"> F  </i>
   <i type="logical" name="LNABLA"> F  </i>
   <i type="logical" name="LVEL"> F  </i>
   <i type="int" name="KINTER">     0</i>
   <i name="CSHIFT">      0.10000000</i>
   <i name="OMEGAMAX">     -1.00000000</i>
   <i name="DEG_THRESHOLD">      0.00200000</i>
   <i name="RTIME">     -0.10000000</i>
   <i name="WPLASMAI">      0.00000000</i>
   <v name="DFIELD">      0.00000000      0.00000000      0.00000000</v>
   <v name="WPLASMA">      0.00000000      0.00000000      0.00000000      0.00000000      0.00000000      0.00000000      0.00000000      0.00000000      0.00000000</v>
  </separator>
  <separator name="orbital magnetization" >
   <i type="logical" name="NUCIND"> F  </i>
   <v name="MAGPOS">      0.00000000      0.00000000      0.00000000</v>
   <i type="logical" name="LNICSALL"> T  </i>
   <i type="logical" name="ORBITALMAG"> F  </i>
   <i type="logical" name="LMAGBLOCH"> F  </i>
   <i type="logical" name="LCHIMAG"> F  </i>
   <i type="logical" name="LGAUGE"> T  </i>
   <i type="int" name="MAGATOM">     0</i>
   <v name="MAGDIPOL">      0.00000000      0.00000000      0.00000000</v>
   <v name="AVECCONST">      0.00000000      0.00000000      0.00000000</v>
  </separator>
  <separator name="response functions" >
   <i type="logical" name="LADDER"> F  </i>
   <i type="logical" name="LRPAFORCE"> F  </i>
   <i type="logical" name="LFXC"> F  </i>
   <i type="logical" name="LHARTREE"> T  </i>
   <i type="int" name="IBSE">     0</i>
   <v type="int" name="KPOINT">    -1     0     0     0</v>
   <i type="logical" name="LTCTE"> F  </i>
   <i type="logical" name="LTETE"> F  </i>
   <i type="logical" name="LTRIPLET"> F  </i>
   <i type="logical" name="LFXCEPS"> F  </i>
   <i type="logical" name="LFXHEG"> F  </i>
   <i type="int" name="NATURALO">     2</i>
   <i type="logical" name="L2ORDER"> F  </i>
   <i type="logical" name="LMP2LT"> F  </i>
   <i type="logical" name="LUSEW"> F  </i>
   <i name="ENCUTGW">     -2.00000000</i>
   <i name="ENCUTGWSOFT">     -2.00000000</i>
   <i name="ENCUTLF">     -1.00000000</i>
   <i type="int" name="LMAXMP2">    -1</i>
   <i name="SCISSOR">      0.00000000</i>
   <i type="int" name="NOMEGA">     0</i>
   <i type="int" name="NOMEGAR">     0</i>
   <i type="int" name="NBANDSGW">    -1</i>
   <i type="int" name="NBANDSO">    -1</i>
   <i type="int" name="NBANDSV">    -1</i>
   <i type="int" name="NELM">   200</i>
   <i type="int" name="NELMHF">     1</i>
   <i type="int" name="DIM">     3</i>
   <i type="int" name="ANTIRES">     0</i>
   <i name="OMEGAMAX">    -30.00000000</i>
   <i name="OMEGAMIN">    -30.00000000</i>
   <i name="OMEGATL">   -200.00000000</i>
   <i type="int" name="OMEGAGRID">   140</i>
   <i name="CSHIFT">     -0.10000000</i>
   <i type="logical" name="SELFENERGY"> F  </i>
   <i type="logical" name="LSPECTRAL"> F  </i>
   <i type="logical" name="LSPECTRALGW"> F  </i>
   <i type="logical" name="LSINGLES"> F  </i>
   <i type="logical" name="LFERMIGW"> F  </i>
   <i type="logical" name="ODDONLYGW"> F  </i>
   <i type="logical" name="EVENONLYGW"> F  </i>
   <i type="int" name="NKREDLFX">     1</i>
   <i type="int" name="NKREDLFY">     1</i>
   <i type="int" name="NKREDLFZ">     1</i>
   <i type="int" name="MAXMEM">  2800</i>
   <i type="int" name="TELESCOPE">     0</i>
   <i type="int" name="TAUPAR">     1</i>
   <i type="int" name="OMEGAPAR">    -1</i>
   <i name="LAMBDA">      1.00000000</i>
  </separator>
  <separator name="External order field" >
   <i name="OFIELD_KAPPA">      0.00000000</i>
   <v name="OFIELD_K">      0.00000000      0.00000000      0.00000000</v>
   <i name="OFIELD_Q6_NEAR">      0.00000000</i>
   <i name="OFIELD_Q6_FAR">      0.00000000</i>
   <i name="OFIELD_A">      0.00000000</i>
  </separator>
  <separator name="solvation model" >
   <i type="logical" name="LSOL"> F  </i>
  </separator>
 </parameters>
 <atominfo>
  <atoms>      66 </atoms>
  <types>       2 </types>
  <array name="atoms" >
   <dimension dim="1">ion</dimension>
   <field type="string">element</field>
   <field type="int">atomtype</field>
   <set>
    <rc><c>C </c><c>   1</c></rc>
    <rc><c>C </c><c>   1</c></rc>
    <rc><c>C </c><c>   1</c></rc>
    <rc><c>C </c><c>   1</c></rc>
    <rc><c>C </c><c>   1</c></rc>
    <rc><c>C </c><c>   1</c></rc>
    <rc><c>C </c><c>   1</c></rc>
    <rc><c>C </c><c>   1</c></rc>
    <rc><c>C </c><c>   1</c></rc>
    <rc><c>C </c><c>   1</c></rc>
    <rc><c>C </c><c>   1</c></rc>
    <rc><c>C </c><c>   1</c></rc>
    <rc><c>C </c><c>   1</c></rc>
    <rc><c>C </c><c>   1</c></rc>
    <rc><c>C </c><c>   1</c></rc>
    <rc><c>C </c><c>   1</c></rc>
    <rc><c>C </c><c>   1</c></rc>
    <rc><c>C </c><c>   1</c></rc>
    <rc><c>C </c><c>   1</c></rc>
    <rc><c>C </c><c>   1</c></rc>
    <rc><c>C </c><c>   1</c></rc>
    <rc><c>C </c><c>   1</c></rc>
    <rc><c>C </c><c>   1</c></rc>
    <rc><c>C </c><c>   1</c></rc>
    <rc><c>C </c><c>   1</c></rc>
    <rc><c>C </c><c>   1</c></rc>
    <rc><c>C </c><c>   1</c></rc>
    <rc><c>C </c><c>   1</c></rc>
    <rc><c>C </c><c>   1</c></rc>
    <rc><c>C </c><c>   1</c></rc>
    <rc><c>C </c><c>   1</c></rc>
    <rc><c>C </c><c>   1</c></rc>
    <rc><c>C </c><c>   1</c></rc>
    <rc><c>C </c><c>   1</c></rc>
    <rc><c>C </c><c>   1</c></rc>
    <rc><c>C </c><c>   1</c></rc>
    <rc><c>H </c><c>   2</c></rc>
    <rc><c>H </c><c>   2</c></rc>
    <rc><c>H </c><c>   2</c></rc>
    <rc><c>H </c><c>   2</c></rc>
    <rc><c>H </c><c>   2</c></rc>
    <rc><c>H </c><c>   2</c></rc>
    <rc><c>H </c><c>   2</c></rc>
    <rc><c>H </c><c>   2</c></rc>
    <rc><c>H </c><c>   2</c></rc>
    <rc><c>H </c><c>   2</c></rc>
    <rc><c>H </c><c>   2</c></rc>
    <rc><c>H </c><c>   2</c></rc>
    <rc><c>H </c><c>   2</c></rc>
    <rc><c>H </c><c>   2</c></rc>
    <rc><c>H </c><c>   2</c></rc>
    <rc><c>H </c><c>   2</c></rc>
    <rc><c>H </c><c>   2</c></rc>
    <rc><c>H </c><c>   2</c></rc>
    <rc><c>H </c><c>   2</c></rc>
    <rc><c>H </c><c>   2</c></rc>
    <rc><c>H </c><c>   2</c></rc>
    <rc><c>H </c><c>   2</c></rc>
    <rc><c>H </c><c>   2</c></rc>
    <rc><c>H </c><c>   2</c></rc>
    <rc><c>H </c><c>   2</c></rc>
    <rc><c>H </c><c>   2</c></rc>
    <rc><c>H </c><c>   2</c></rc>
    <rc><c>H </c><c>   2</c></rc>
    <rc><c>H </c><c>   2</c></rc>
    <rc><c>H </c><c>   2</c></rc>
   </set>
  </array>
  <array name="atomtypes" >
   <dimension dim="1">type</dimension>
   <field type="int">atomspertype</field>
   <field type="string">element</field>
   <field>mass</field>
   <field>valence</field>
   <field type="string">pseudopotential</field>
   <set>
    <rc><c>  36</c><c>C </c><c>     12.01100000</c><c>      4.00000000</c><c>  PAW_PBE C 08Apr2002                   </c></rc>
    <rc><c>  30</c><c>H </c><c>      1.00000000</c><c>      1.00000000</c><c>  PAW_PBE H 15Jun2001                   </c></rc>
   </set>
  </array>
 </atominfo>
 <structure name="initialpos" >
  <crystal>
   <varray name="basis" >
    <v>      14.92158528       0.00049688       0.00000000 </v>
    <v>      -7.46036279      12.92233364       0.00000000 </v>
    <v>       0.00000000       0.00000000      20.00000000 </v>
   </varray>
   <i name="volume">   3856.50820775 </i>
   <varray name="rec_basis" >
    <v>       0.06701572       0.03868973       0.00000000 </v>
    <v>      -0.00000258       0.07738392       0.00000000 </v>
    <v>       0.00000000       0.00000000       0.05000000 </v>
   </varray>
  </crystal>
  <varray name="positions" >
   <v>       0.94474509       0.52685560       0.44509658 </v>
   <v>       0.93394095       0.41941686       0.53920588 </v>
   <v>       0.89906959       0.55951419       0.38935580 </v>
   <v>       0.88390447       0.44624078       0.49034645 </v>
   <v>       0.76905952       0.38789737       0.48832291 </v>
   <v>       0.71146867       0.43878465       0.48836211 </v>
   <v>       0.60291840       0.38343184       0.48838843 </v>
   <v>       0.55204590       0.27496642       0.48843127 </v>
   <v>       0.60739268       0.22176057       0.48834475 </v>
   <v>       0.71586093       0.27934701       0.48834098 </v>
   <v>       0.21716745       0.60745108       0.50266794 </v>
   <v>       0.27478975       0.55659785       0.50260457 </v>
   <v>       0.38333725       0.61199218       0.50259682 </v>
   <v>       0.43417230       0.72045994       0.50258469 </v>
   <v>       0.37878441       0.77361880       0.50264577 </v>
   <v>       0.27031494       0.71599520       0.50267043 </v>
   <v>       0.55086569       0.10691495       0.49034599 </v>
   <v>       0.57069423       0.04606526       0.44513050 </v>
   <v>       0.51215060       0.93849079       0.45177289 </v>
   <v>       0.64915384       0.09175435       0.38944848 </v>
   <v>       0.54455573       0.43990945       0.49039708 </v>
   <v>       0.46397143       0.42010627       0.44512260 </v>
   <v>       0.41491568       0.47863425       0.45173200 </v>
   <v>       0.43137378       0.34171023       0.38941248 </v>
   <v>       0.05231147       0.57590835       0.45176041 </v>
   <v>       0.43523083       0.88845447       0.50059171 </v>
   <v>       0.41542257       0.94930350       0.54581374 </v>
   <v>       0.47389533       0.05687541       0.53912943 </v>
   <v>       0.33716297       0.90364752       0.60160921 </v>
   <v>       0.44172295       0.55553535       0.50055600 </v>
   <v>       0.52231721       0.57533334       0.54582403 </v>
   <v>       0.57137577       0.51681273       0.53920837 </v>
   <v>       0.55491692       0.65368850       0.60156397 </v>
   <v>       0.10233371       0.54909217       0.50062450 </v>
   <v>       0.04150849       0.46852338       0.54589966 </v>
   <v>       0.08726119       0.43607908       0.60171865 </v>
   <v>       0.95458088       0.59384188       0.34806063 </v>
   <v>       0.87972877       0.61814854       0.40608221 </v>
   <v>       0.88595136       0.35857964       0.57482975 </v>
   <v>       0.46770417       0.23063561       0.48905122 </v>
   <v>       0.76020254       0.23934665       0.48888200 </v>
   <v>       0.75147322       0.52313088       0.48888876 </v>
   <v>       0.51850639       0.76483695       0.50201262 </v>
   <v>       0.22591889       0.75595171       0.50215101 </v>
   <v>       0.23479925       0.47224333       0.50206310 </v>
   <v>       0.52502849       0.89047505       0.41618059 </v>
   <v>       0.65549664       0.16343037       0.36982274 </v>
   <v>       0.62798907       0.03629208       0.34813141 </v>
   <v>       0.72703906       0.11095141       0.40624970 </v>
   <v>       0.35409657       0.46577929       0.41608685 </v>
   <v>       0.49685686       0.33568084       0.36972824 </v>
   <v>       0.39682968       0.36269143       0.34814783 </v>
   <v>       0.37295328       0.26370952       0.40620682 </v>
   <v>       0.10031641       0.63674920       0.41615010 </v>
   <v>       0.82746761       0.49412097       0.36969204 </v>
   <v>       0.46093965       0.10486661       0.57469451 </v>
   <v>       0.33094725       0.83202755       0.62124103 </v>
   <v>       0.25917556       0.88434458       0.58495067 </v>
   <v>       0.35848384       0.95916536       0.64290493 </v>
   <v>       0.63220020       0.52966896       0.57484828 </v>
   <v>       0.48942666       0.65964641       0.62131338 </v>
   <v>       0.61328623       0.73170946       0.58477162 </v>
   <v>       0.58949822       0.63267059       0.64278491 </v>
   <v>       0.15872214       0.50163947       0.62139163 </v>
   <v>       0.10689653       0.37764089       0.58504123 </v>
   <v>       0.03170538       0.40164059       0.64297876 </v>
  </varray>
 </structure>
 <calculation>
  <scstep>
   <time name="dav">   35.53   35.79</time>
   <time name="total">   35.62   35.89</time>
   <energy>
    <i name="alphaZ">     36.65454447 </i>
    <i name="ewald">  18023.22362276 </i>
    <i name="hartreedc"> -22746.19556929 </i>
    <i name="XCdc">    576.59541130 </i>
    <i name="pawpsdc">  15048.92938853 </i>
    <i name="pawaedc"> -15074.29027324 </i>
    <i name="eentropy">     -0.00000000 </i>
    <i name="bandstr">  -1970.85008129 </i>
    <i name="atom">   5671.93607654 </i>
    <i name="e_fr_energy">   -433.99688021 </i>
    <i name="e_wo_entrp">   -433.99688021 </i>
    <i name="e_0_energy">   -433.99688021 </i>
   </energy>
  </scstep>
  <scstep>
   <time name="dav">   38.27   38.55</time>
   <time name="total">   38.27   38.55</time>
   <energy>
    <i name="e_fr_energy">   -435.96770986 </i>
    <i name="e_wo_entrp">   -435.96770986 </i>
    <i name="e_0_energy">   -435.96770986 </i>
   </energy>
  </scstep>
  <scstep>
   <time name="dav">   39.31   39.59</time>
   <time name="total">   39.31   39.59</time>
   <energy>
    <i name="e_fr_energy">   -436.01128056 </i>
    <i name="e_wo_entrp">   -436.01128056 </i>
    <i name="e_0_energy">   -436.01128056 </i>
   </energy>
  </scstep>
  <scstep>
   <time name="dav">   40.52   40.80</time>
   <time name="total">   40.52   40.81</time>
   <energy>
    <i name="e_fr_energy">   -436.01242827 </i>
    <i name="e_wo_entrp">   -436.01242827 </i>
    <i name="e_0_energy">   -436.01242827 </i>
   </energy>
  </scstep>
  <scstep>
   <time name="dav">   38.72   38.99</time>
   <time name="total">   38.72   38.99</time>
   <energy>
    <i name="e_fr_energy">   -436.01246731 </i>
    <i name="e_wo_entrp">   -436.01246731 </i>
    <i name="e_0_energy">   -436.01246731 </i>
   </energy>
  </scstep>
  <scstep>
   <time name="dav">   32.72   32.95</time>
   <time name="total">   32.73   32.96</time>
   <energy>
    <i name="alphaZ">     36.65454447 </i>
    <i name="ewald">  18023.22362276 </i>
    <i name="hartreedc"> -22746.19556929 </i>
    <i name="XCdc">    576.59541130 </i>
    <i name="pawpsdc">  15048.92938853 </i>
    <i name="pawaedc"> -15074.29027324 </i>
    <i name="eentropy">     -0.00000000 </i>
    <i name="bandstr">  -1972.86566925 </i>
    <i name="atom">   5671.93607654 </i>
    <i name="e_fr_energy">   -436.01246817 </i>
    <i name="e_wo_entrp">   -436.01246817 </i>
    <i name="e_0_energy">   -436.01246817 </i>
   </energy>
  </scstep>
  <structure>
   <crystal>
    <varray name="basis" >
     <v>      14.92158528       0.00049688       0.00000000 </v>
     <v>      -7.46036279      12.92233364       0.00000000 </v>
     <v>       0.00000000       0.00000000      20.00000000 </v>
    </varray>
    <i name="volume">   3856.50820775 </i>
    <varray name="rec_basis" >
     <v>       0.06701572       0.03868973       0.00000000 </v>
     <v>      -0.00000258       0.07738392       0.00000000 </v>
     <v>       0.00000000       0.00000000       0.05000000 </v>
    </varray>
   </crystal>
   <varray name="positions" >
    <v>       0.94474509       0.52685560       0.44509658 </v>
    <v>       0.93394095       0.41941686       0.53920588 </v>
    <v>       0.89906959       0.55951419       0.38935580 </v>
    <v>       0.88390447       0.44624078       0.49034645 </v>
    <v>       0.76905952       0.38789737       0.48832291 </v>
    <v>       0.71146867       0.43878465       0.48836211 </v>
    <v>       0.60291840       0.38343184       0.48838843 </v>
    <v>       0.55204590       0.27496642       0.48843127 </v>
    <v>       0.60739268       0.22176057       0.48834475 </v>
    <v>       0.71586093       0.27934701       0.48834098 </v>
    <v>       0.21716745       0.60745108       0.50266794 </v>
    <v>       0.27478975       0.55659785       0.50260457 </v>
    <v>       0.38333725       0.61199218       0.50259682 </v>
    <v>       0.43417230       0.72045994       0.50258469 </v>
    <v>       0.37878441       0.77361880       0.50264577 </v>
    <v>       0.27031494       0.71599520       0.50267043 </v>
    <v>       0.55086569       0.10691495       0.49034599 </v>
    <v>       0.57069423       0.04606526       0.44513050 </v>
    <v>       0.51215060       0.93849079       0.45177289 </v>
    <v>       0.64915384       0.09175435       0.38944848 </v>
    <v>       0.54455573       0.43990945       0.49039708 </v>
    <v>       0.46397143       0.42010627       0.44512260 </v>
    <v>       0.41491568       0.47863425       0.45173200 </v>
    <v>       0.43137378       0.34171023       0.38941248 </v>
    <v>       0.05231147       0.57590835       0.45176041 </v>
    <v>       0.43523083       0.88845447       0.50059171 </v>
    <v>       0.41542257       0.94930350       0.54581374 </v>
    <v>       0.47389533       0.05687541       0.53912943 </v>
    <v>       0.33716297       0.90364752       0.60160921 </v>
    <v>       0.44172295       0.55553535       0.50055600 </v>
    <v>       0.52231721       0.57533334       0.54582403 </v>
    <v>       0.57137577       0.51681273       0.53920837 </v>
    <v>       0.55491692       0.65368850       0.60156397 </v>
    <v>       0.10233371       0.54909217       0.50062450 </v>
    <v>       0.04150849       0.46852338       0.54589966 </v>
    <v>       0.08726119       0.43607908       0.60171865 </v>
    <v>       0.95458088       0.59384188       0.34806063 </v>
    <v>       0.87972877       0.61814854       0.40608221 </v>
    <v>       0.88595136       0.35857964       0.57482975 </v>
    <v>       0.46770417       0.23063561       0.48905122 </v>
    <v>       0.76020254       0.23934665       0.48888200 </v>
    <v>       0.75147322       0.52313088       0.48888876 </v>
    <v>       0.51850639       0.76483695       0.50201262 </v>
    <v>       0.22591889       0.75595171       0.50215101 </v>
    <v>       0.23479925       0.47224333       0.50206310 </v>
    <v>       0.52502849       0.89047505       0.41618059 </v>
    <v>       0.65549664       0.16343037       0.36982274 </v>
    <v>       0.62798907       0.03629208       0.34813141 </v>
    <v>       0.72703906       0.11095141       0.40624970 </v>
    <v>       0.35409657       0.46577929       0.41608685 </v>
    <v>       0.49685686       0.33568084       0.36972824 </v>
    <v>       0.39682968       0.36269143       0.34814783 </v>
    <v>       0.37295328       0.26370952       0.40620682 </v>
    <v>       0.10031641       0.63674920       0.41615010 </v>
    <v>       0.82746761       0.49412097       0.36969204 </v>
    <v>       0.46093965       0.10486661       0.57469451 </v>
    <v>       0.33094725       0.83202755       0.62124103 </v>
    <v>       0.25917556       0.88434458       0.58495067 </v>
    <v>       0.35848384       0.95916536       0.64290493 </v>
    <v>       0.63220020       0.52966896       0.57484828 </v>
    <v>       0.48942666       0.65964641       0.62131338 </v>
    <v>       0.61328623       0.73170946       0.58477162 </v>
    <v>       0.58949822       0.63267059       0.64278491 </v>
    <v>       0.15872214       0.50163947       0.62139163 </v>
    <v>       0.10689653       0.37764089       0.58504123 </v>
    <v>       0.03170538       0.40164059       0.64297876 </v>
   </varray>
  </structure>
  <varray name="forces" >
   <v>      -0.00122571      -0.00393009       0.00045613 </v>
   <v>      -0.00155023       0.00337123       0.00088195 </v>
   <v>      -0.00394490       0.00170182      -0.00580972 </v>
   <v>      -0.00061958      -0.00005684      -0.00122300 </v>
   <v>      -0.00038840       0.00948513       0.00231515 </v>
   <v>       0.00247784      -0.00011844       0.00014400 </v>
   <v>      -0.00324521      -0.01219872       0.00344587 </v>
   <v>       0.00384652       0.00313285      -0.00269455 </v>
   <v>      -0.00540279      -0.00342760      -0.00376729 </v>
   <v>      -0.00120398      -0.00200500      -0.00037969 </v>
   <v>       0.00089343      -0.00651692      -0.00170920 </v>
   <v>      -0.00317706      -0.00124896       0.00132680 </v>
   <v>       0.00468034       0.00783505      -0.00352930 </v>
   <v>      -0.00538914      -0.00526499       0.00293685 </v>
   <v>       0.00098607       0.00306105       0.00477375 </v>
   <v>      -0.00075893       0.00449225      -0.00008073 </v>
   <v>       0.00405711       0.00096874      -0.00134943 </v>
   <v>       0.00087302       0.00164067      -0.00042949 </v>
   <v>      -0.00309396       0.00133507      -0.00251892 </v>
   <v>      -0.00357172      -0.00251640       0.00069121 </v>
   <v>       0.00194725      -0.00029837      -0.00181862 </v>
   <v>      -0.00149189       0.00126419      -0.00461557 </v>
   <v>      -0.00076606       0.00101193      -0.00188870 </v>
   <v>      -0.00078981       0.00233025       0.00048588 </v>
   <v>      -0.00008826      -0.00425789       0.00040756 </v>
   <v>      -0.00100395       0.00181399       0.00086415 </v>
   <v>       0.00019869      -0.00189175       0.00006657 </v>
   <v>       0.00372931      -0.00199903       0.00179201 </v>
   <v>       0.00015844      -0.00121160      -0.00068004 </v>
   <v>       0.00231131      -0.00179180       0.00085269 </v>
   <v>      -0.00142410       0.00061686       0.00391507 </v>
   <v>       0.00023348       0.00129676       0.00200951 </v>
   <v>      -0.00154489      -0.00399253      -0.00214344 </v>
   <v>       0.00188491      -0.00035547       0.00211895 </v>
   <v>      -0.00101689       0.00169567      -0.00049984 </v>
   <v>      -0.00011448      -0.00186649       0.00213080 </v>
   <v>      -0.00142616      -0.00155533      -0.00124409 </v>
   <v>       0.00081843      -0.00329832      -0.00256625 </v>
   <v>       0.00046276      -0.00129928       0.00445131 </v>
   <v>       0.00084054       0.00162676      -0.00019534 </v>
   <v>       0.00394733      -0.00306563       0.00143566 </v>
   <v>       0.00140474       0.00103252       0.00250762 </v>
   <v>       0.00387835       0.00034836      -0.00084742 </v>
   <v>       0.00050906       0.00267995      -0.00214418 </v>
   <v>      -0.00084445       0.00035314      -0.00236761 </v>
   <v>       0.00081595       0.00201728      -0.00306215 </v>
   <v>      -0.00209573      -0.00074446      -0.00005055 </v>
   <v>      -0.00004865       0.00074179      -0.00251760 </v>
   <v>       0.00197400       0.00221148      -0.00166268 </v>
   <v>       0.00094713      -0.00318595      -0.00064856 </v>
   <v>      -0.00072258       0.00168886      -0.00081221 </v>
   <v>       0.00071903       0.00166371      -0.00435152 </v>
   <v>       0.00015437      -0.00065350      -0.00127655 </v>
   <v>      -0.00115697       0.00266628      -0.00499707 </v>
   <v>       0.00272551       0.00137562       0.00218373 </v>
   <v>       0.00017280      -0.00041024       0.00562585 </v>
   <v>       0.00179829       0.00160745      -0.00116687 </v>
   <v>       0.00154186      -0.00029169       0.00188062 </v>
   <v>      -0.00131148      -0.00003834       0.00361909 </v>
   <v>       0.00066492       0.00206277       0.00075780 </v>
   <v>      -0.00087184      -0.00147739       0.00075271 </v>
   <v>      -0.00004145       0.00011963       0.00259056 </v>
   <v>       0.00040976       0.00035371       0.00310835 </v>
   <v>      -0.00218279       0.00025094       0.00072151 </v>
   <v>      -0.00048687       0.00093131       0.00292630 </v>
   <v>       0.00093836       0.00018393       0.00087218 </v>
  </varray>
  <varray name="stress" >
   <v>       0.01201722       0.00357541       0.00738499 </v>
   <v>       0.00357541       0.00687930      -0.00533280 </v>
   <v>       0.00738499      -0.00533280      -0.26309273 </v>
  </varray>
  <energy>
   <i name="e_fr_energy">   -437.50252486 </i>
   <i name="e_wo_entrp">   -437.50252486 </i>
   <i name="e_0_energy">     -0.00000000 </i>
  </energy>
  <time name="totalsc">  250.97  252.82</time>
  <eigenvalues>
   <array>
    <dimension dim="1">band</dimension>
    <dimension dim="2">kpoint</dimension>
    <dimension dim="3">spin</dimension>
    <field>eigene</field>
    <field>occ</field>
    <set>
     <set comment="spin 1">
      <set comment="kpoint 1">
       <r>  -21.1777    1.0000 </r>
       <r>  -20.8301    1.0000 </r>
       <r>  -20.7406    1.0000 </r>
       <r>  -20.7402    1.0000 </r>
       <r>  -19.9517    1.0000 </r>
       <r>  -19.2339    1.0000 </r>
       <r>  -19.2334    1.0000 </r>
       <r>  -18.6173    1.0000 </r>
       <r>  -18.4448    1.0000 </r>
       <r>  -18.4440    1.0000 </r>
       <r>  -17.9461    1.0000 </r>
       <r>  -17.9456    1.0000 </r>
       <r>  -17.4732    1.0000 </r>
       <r>  -16.9651    1.0000 </r>
       <r>  -16.9148    1.0000 </r>
       <r>  -16.9145    1.0000 </r>
       <r>  -16.5756    1.0000 </r>
       <r>  -16.5752    1.0000 </r>
       <r>  -15.3273    1.0000 </r>
       <r>  -15.3271    1.0000 </r>
       <r>  -15.3043    1.0000 </r>
       <r>  -14.9654    1.0000 </r>
       <r>  -14.9653    1.0000 </r>
       <r>  -14.4306    1.0000 </r>
       <r>  -13.7264    1.0000 </r>
       <r>  -13.7260    1.0000 </r>
       <r>  -13.6567    1.0000 </r>
       <r>  -13.6378    1.0000 </r>
       <r>  -13.6372    1.0000 </r>
       <r>  -12.3123    1.0000 </r>
       <r>  -12.3121    1.0000 </r>
       <r>  -11.7340    1.0000 </r>
       <r>  -11.6482    1.0000 </r>
       <r>  -11.4147    1.0000 </r>
       <r>  -11.0182    1.0000 </r>
       <r>  -10.8204    1.0000 </r>
       <r>  -10.8196    1.0000 </r>
       <r>  -10.7191    1.0000 </r>
       <r>  -10.7188    1.0000 </r>
       <r>  -10.6868    1.0000 </r>
       <r>  -10.4080    1.0000 </r>
       <r>  -10.2928    1.0000 </r>
       <r>   -9.8625    1.0000 </r>
       <r>   -9.8621    1.0000 </r>
       <r>   -9.5619    1.0000 </r>
       <r>   -9.5619    1.0000 </r>
       <r>   -9.4041    1.0000 </r>
       <r>   -9.2852    1.0000 </r>
       <r>   -9.2800    1.0000 </r>
       <r>   -9.2797    1.0000 </r>
       <r>   -9.2433    1.0000 </r>
       <r>   -9.1146    1.0000 </r>
       <r>   -9.1141    1.0000 </r>
       <r>   -9.0500    1.0000 </r>
       <r>   -8.8631    1.0000 </r>
       <r>   -8.8627    1.0000 </r>
       <r>   -8.8176    1.0000 </r>
       <r>   -8.8040    1.0000 </r>
       <r>   -8.8034    1.0000 </r>
       <r>   -8.4592    1.0000 </r>
       <r>   -8.2932    1.0000 </r>
       <r>   -8.2927    1.0000 </r>
       <r>   -8.1999    1.0000 </r>
       <r>   -8.1993    1.0000 </r>
       <r>   -8.1692    1.0000 </r>
       <r>   -8.0141    1.0000 </r>
       <r>   -7.8828    1.0000 </r>
       <r>   -7.8824    1.0000 </r>
       <r>   -7.5778    1.0000 </r>
       <r>   -7.4169    1.0000 </r>
       <r>   -7.4165    1.0000 </r>
       <r>   -7.2935    1.0000 </r>
       <r>   -7.2932    1.0000 </r>
       <r>   -7.2928    1.0000 </r>
       <r>   -7.1502    1.0000 </r>
       <r>   -6.8881    1.0000 </r>
       <r>   -6.8871    1.0000 </r>
       <r>   -6.1657    1.0000 </r>
       <r>   -6.1633    1.0000 </r>
       <r>   -5.4399    1.0000 </r>
       <r>   -5.4395    1.0000 </r>
       <r>   -5.2038    1.0000 </r>
       <r>   -5.1148    1.0000 </r>
       <r>   -5.1144    1.0000 </r>
       <r>   -4.8850    1.0000 </r>
       <r>   -4.5962    1.0000 </r>
       <r>   -4.5948    1.0000 </r>
       <r>   -1.2550    0.0000 </r>
       <r>   -1.2541    0.0000 </r>
       <r>   -0.4311    0.0000 </r>
       <r>   -0.4299    0.0000 </r>
       <r>   -0.4295    0.0000 </r>
       <r>   -0.3770    0.0000 </r>
       <r>   -0.3758    0.0000 </r>
       <r>   -0.2524    0.0000 </r>
       <r>   -0.0846    0.0000 </r>
       <r>    0.3283    0.0000 </r>
       <r>    0.5898    0.0000 </r>
       <r>    0.5912    0.0000 </r>
       <r>    0.6946    0.0000 </r>
       <r>    0.6958    0.0000 </r>
       <r>    0.7016    0.0000 </r>
       <r>    0.7909    0.0000 </r>
       <r>    0.8147    0.0000 </r>
       <r>    0.8149    0.0000 </r>
       <r>    1.0130    0.0000 </r>
       <r>    1.0498    0.0000 </r>
       <r>    1.1960    0.0000 </r>
       <r>    1.1963    0.0000 </r>
       <r>    1.2115    0.0000 </r>
       <r>    1.2119    0.0000 </r>
       <r>    1.5566    0.0000 </r>
       <r>    1.6096    0.0000 </r>
       <r>    1.6495    0.0000 </r>
       <r>    1.6507    0.0000 </r>
       <r>    1.6514    0.0000 </r>
       <r>    1.6526    0.0000 </r>
       <r>    1.7327    0.0000 </r>
       <r>    1.7704    0.0000 </r>
       <r>    1.9064    0.0000 </r>
       <r>    1.9580    0.0000 </r>
       <r>    2.0245    0.0000 </r>
       <r>    2.0492    0.0000 </r>
       <r>    2.0502    0.0000 </r>
       <r>    2.2177    0.0000 </r>
       <r>    2.2194    0.0000 </r>
       <r>    2.3416    0.0000 </r>
       <r>    2.3422    0.0000 </r>
      </set>
      <set comment="kpoint 2">
       <r>  -21.1774    1.0000 </r>
       <r>  -20.8337    1.0000 </r>
       <r>  -20.7403    1.0000 </r>
       <r>  -20.7364    1.0000 </r>
       <r>  -19.9533    1.0000 </r>
       <r>  -19.2336    1.0000 </r>
       <r>  -19.2319    1.0000 </r>
       <r>  -18.6177    1.0000 </r>
       <r>  -18.4448    1.0000 </r>
       <r>  -18.4440    1.0000 </r>
       <r>  -17.9490    1.0000 </r>
       <r>  -17.9455    1.0000 </r>
       <r>  -17.4703    1.0000 </r>
       <r>  -16.9653    1.0000 </r>
       <r>  -16.9149    1.0000 </r>
       <r>  -16.9144    1.0000 </r>
       <r>  -16.5759    1.0000 </r>
       <r>  -16.5754    1.0000 </r>
       <r>  -15.3273    1.0000 </r>
       <r>  -15.3271    1.0000 </r>
       <r>  -15.3043    1.0000 </r>
       <r>  -14.9651    1.0000 </r>
       <r>  -14.9648    1.0000 </r>
       <r>  -14.4321    1.0000 </r>
       <r>  -13.7357    1.0000 </r>
       <r>  -13.7287    1.0000 </r>
       <r>  -13.6505    1.0000 </r>
       <r>  -13.6345    1.0000 </r>
       <r>  -13.6323    1.0000 </r>
       <r>  -12.3143    1.0000 </r>
       <r>  -12.3124    1.0000 </r>
       <r>  -11.7336    1.0000 </r>
       <r>  -11.6482    1.0000 </r>
       <r>  -11.4139    1.0000 </r>
       <r>  -11.0182    1.0000 </r>
       <r>  -10.8221    1.0000 </r>
       <r>  -10.8203    1.0000 </r>
       <r>  -10.7315    1.0000 </r>
       <r>  -10.7182    1.0000 </r>
       <r>  -10.6726    1.0000 </r>
       <r>  -10.4073    1.0000 </r>
       <r>  -10.2928    1.0000 </r>
       <r>   -9.8626    1.0000 </r>
       <r>   -9.8623    1.0000 </r>
       <r>   -9.5618    1.0000 </r>
       <r>   -9.5616    1.0000 </r>
       <r>   -9.4045    1.0000 </r>
       <r>   -9.2867    1.0000 </r>
       <r>   -9.2799    1.0000 </r>
       <r>   -9.2784    1.0000 </r>
       <r>   -9.2432    1.0000 </r>
       <r>   -9.1165    1.0000 </r>
       <r>   -9.1145    1.0000 </r>
       <r>   -9.0478    1.0000 </r>
       <r>   -8.8631    1.0000 </r>
       <r>   -8.8627    1.0000 </r>
       <r>   -8.8176    1.0000 </r>
       <r>   -8.8041    1.0000 </r>
       <r>   -8.8033    1.0000 </r>
       <r>   -8.4588    1.0000 </r>
       <r>   -8.2940    1.0000 </r>
       <r>   -8.2937    1.0000 </r>
       <r>   -8.1991    1.0000 </r>
       <r>   -8.1983    1.0000 </r>
       <r>   -8.1691    1.0000 </r>
       <r>   -8.0146    1.0000 </r>
       <r>   -7.8833    1.0000 </r>
       <r>   -7.8822    1.0000 </r>
       <r>   -7.5781    1.0000 </r>
       <r>   -7.4174    1.0000 </r>
       <r>   -7.4168    1.0000 </r>
       <r>   -7.2948    1.0000 </r>
       <r>   -7.2928    1.0000 </r>
       <r>   -7.2916    1.0000 </r>
       <r>   -7.1500    1.0000 </r>
       <r>   -6.8878    1.0000 </r>
       <r>   -6.8864    1.0000 </r>
       <r>   -6.1656    1.0000 </r>
       <r>   -6.1626    1.0000 </r>
       <r>   -5.4418    1.0000 </r>
       <r>   -5.4399    1.0000 </r>
       <r>   -5.2028    1.0000 </r>
       <r>   -5.1147    1.0000 </r>
       <r>   -5.1144    1.0000 </r>
       <r>   -4.8843    1.0000 </r>
       <r>   -4.5964    1.0000 </r>
       <r>   -4.5950    1.0000 </r>
       <r>   -1.2548    0.0000 </r>
       <r>   -1.2534    0.0000 </r>
       <r>   -0.4547    0.0000 </r>
       <r>   -0.4308    0.0000 </r>
       <r>   -0.4103    0.0000 </r>
       <r>   -0.3760    0.0000 </r>
       <r>   -0.3748    0.0000 </r>
       <r>   -0.2490    0.0000 </r>
       <r>   -0.0839    0.0000 </r>
       <r>    0.3288    0.0000 </r>
       <r>    0.5885    0.0000 </r>
       <r>    0.5905    0.0000 </r>
       <r>    0.6842    0.0000 </r>
       <r>    0.6930    0.0000 </r>
       <r>    0.7096    0.0000 </r>
       <r>    0.7734    0.0000 </r>
       <r>    0.8178    0.0000 </r>
       <r>    0.8357    0.0000 </r>
       <r>    1.0105    0.0000 </r>
       <r>    1.0505    0.0000 </r>
       <r>    1.1859    0.0000 </r>
       <r>    1.1864    0.0000 </r>
       <r>    1.2223    0.0000 </r>
       <r>    1.2243    0.0000 </r>
       <r>    1.5577    0.0000 </r>
       <r>    1.6068    0.0000 </r>
       <r>    1.6298    0.0000 </r>
       <r>    1.6322    0.0000 </r>
       <r>    1.6679    0.0000 </r>
       <r>    1.6719    0.0000 </r>
       <r>    1.7355    0.0000 </r>
       <r>    1.7746    0.0000 </r>
       <r>    1.9078    0.0000 </r>
       <r>    1.9534    0.0000 </r>
       <r>    2.0248    0.0000 </r>
       <r>    2.0469    0.0000 </r>
       <r>    2.0517    0.0000 </r>
       <r>    2.2192    0.0000 </r>
       <r>    2.2217    0.0000 </r>
       <r>    2.3384    0.0000 </r>
       <r>    2.3436    0.0000 </r>
      </set>
      <set comment="kpoint 3">
       <r>  -21.1767    1.0000 </r>
       <r>  -20.8431    1.0000 </r>
       <r>  -20.7403    1.0000 </r>
       <r>  -20.7258    1.0000 </r>
       <r>  -19.9581    1.0000 </r>
       <r>  -19.2335    1.0000 </r>
       <r>  -19.2266    1.0000 </r>
       <r>  -18.6186    1.0000 </r>
       <r>  -18.4449    1.0000 </r>
       <r>  -18.4438    1.0000 </r>
       <r>  -17.9575    1.0000 </r>
       <r>  -17.9450    1.0000 </r>
       <r>  -17.4615    1.0000 </r>
       <r>  -16.9657    1.0000 </r>
       <r>  -16.9155    1.0000 </r>
       <r>  -16.9143    1.0000 </r>
       <r>  -16.5778    1.0000 </r>
       <r>  -16.5749    1.0000 </r>
       <r>  -15.3273    1.0000 </r>
       <r>  -15.3271    1.0000 </r>
       <r>  -15.3045    1.0000 </r>
       <r>  -14.9643    1.0000 </r>
       <r>  -14.9630    1.0000 </r>
       <r>  -14.4368    1.0000 </r>
       <r>  -13.7556    1.0000 </r>
       <r>  -13.7355    1.0000 </r>
       <r>  -13.6459    1.0000 </r>
       <r>  -13.6259    1.0000 </r>
       <r>  -13.6121    1.0000 </r>
       <r>  -12.3206    1.0000 </r>
       <r>  -12.3133    1.0000 </r>
       <r>  -11.7324    1.0000 </r>
       <r>  -11.6484    1.0000 </r>
       <r>  -11.4116    1.0000 </r>
       <r>  -11.0182    1.0000 </r>
       <r>  -10.8276    1.0000 </r>
       <r>  -10.8224    1.0000 </r>
       <r>  -10.7507    1.0000 </r>
       <r>  -10.7166    1.0000 </r>
       <r>  -10.6479    1.0000 </r>
       <r>  -10.4054    1.0000 </r>
       <r>  -10.2928    1.0000 </r>
       <r>   -9.8641    1.0000 </r>
       <r>   -9.8620    1.0000 </r>
       <r>   -9.5615    1.0000 </r>
       <r>   -9.5608    1.0000 </r>
       <r>   -9.4056    1.0000 </r>
       <r>   -9.2897    1.0000 </r>
       <r>   -9.2801    1.0000 </r>
       <r>   -9.2758    1.0000 </r>
       <r>   -9.2431    1.0000 </r>
       <r>   -9.1230    1.0000 </r>
       <r>   -9.1146    1.0000 </r>
       <r>   -9.0418    1.0000 </r>
       <r>   -8.8630    1.0000 </r>
       <r>   -8.8629    1.0000 </r>
       <r>   -8.8176    1.0000 </r>
       <r>   -8.8041    1.0000 </r>
       <r>   -8.8032    1.0000 </r>
       <r>   -8.4577    1.0000 </r>
       <r>   -8.2969    1.0000 </r>
       <r>   -8.2957    1.0000 </r>
       <r>   -8.1968    1.0000 </r>
       <r>   -8.1954    1.0000 </r>
       <r>   -8.1689    1.0000 </r>
       <r>   -8.0159    1.0000 </r>
       <r>   -7.8852    1.0000 </r>
       <r>   -7.8815    1.0000 </r>
       <r>   -7.5791    1.0000 </r>
       <r>   -7.4193    1.0000 </r>
       <r>   -7.4173    1.0000 </r>
       <r>   -7.2996    1.0000 </r>
       <r>   -7.2913    1.0000 </r>
       <r>   -7.2875    1.0000 </r>
       <r>   -7.1494    1.0000 </r>
       <r>   -6.8879    1.0000 </r>
       <r>   -6.8835    1.0000 </r>
       <r>   -6.1657    1.0000 </r>
       <r>   -6.1605    1.0000 </r>
       <r>   -5.4483    1.0000 </r>
       <r>   -5.4399    1.0000 </r>
       <r>   -5.1998    1.0000 </r>
       <r>   -5.1147    1.0000 </r>
       <r>   -5.1144    1.0000 </r>
       <r>   -4.8823    1.0000 </r>
       <r>   -4.5971    1.0000 </r>
       <r>   -4.5953    1.0000 </r>
       <r>   -1.2545    0.0000 </r>
       <r>   -1.2513    0.0000 </r>
       <r>   -0.4814    0.0000 </r>
       <r>   -0.4340    0.0000 </r>
       <r>   -0.3964    0.0000 </r>
       <r>   -0.3727    0.0000 </r>
       <r>   -0.3717    0.0000 </r>
       <r>   -0.2390    0.0000 </r>
       <r>   -0.0818    0.0000 </r>
       <r>    0.3300    0.0000 </r>
       <r>    0.5842    0.0000 </r>
       <r>    0.5887    0.0000 </r>
       <r>    0.6679    0.0000 </r>
       <r>    0.6866    0.0000 </r>
       <r>    0.7163    0.0000 </r>
       <r>    0.7539    0.0000 </r>
       <r>    0.8255    0.0000 </r>
       <r>    0.8670    0.0000 </r>
       <r>    1.0034    0.0000 </r>
       <r>    1.0530    0.0000 </r>
       <r>    1.1725    0.0000 </r>
       <r>    1.1729    0.0000 </r>
       <r>    1.2385    0.0000 </r>
       <r>    1.2447    0.0000 </r>
       <r>    1.5592    0.0000 </r>
       <r>    1.5900    0.0000 </r>
       <r>    1.6145    0.0000 </r>
       <r>    1.6216    0.0000 </r>
       <r>    1.6776    0.0000 </r>
       <r>    1.6933    0.0000 </r>
       <r>    1.7413    0.0000 </r>
       <r>    1.7878    0.0000 </r>
       <r>    1.9114    0.0000 </r>
       <r>    1.9413    0.0000 </r>
       <r>    2.0258    0.0000 </r>
       <r>    2.0380    0.0000 </r>
       <r>    2.0585    0.0000 </r>
       <r>    2.2227    0.0000 </r>
       <r>    2.2276    0.0000 </r>
       <r>    2.3333    0.0000 </r>
       <r>    2.3397    0.0000 </r>
      </set>
      <set comment="kpoint 4">
       <r>  -21.1755    1.0000 </r>
       <r>  -20.8556    1.0000 </r>
       <r>  -20.7403    1.0000 </r>
       <r>  -20.7111    1.0000 </r>
       <r>  -19.9659    1.0000 </r>
       <r>  -19.2335    1.0000 </r>
       <r>  -19.2178    1.0000 </r>
       <r>  -18.6203    1.0000 </r>
       <r>  -18.4451    1.0000 </r>
       <r>  -18.4433    1.0000 </r>
       <r>  -17.9710    1.0000 </r>
       <r>  -17.9444    1.0000 </r>
       <r>  -17.4478    1.0000 </r>
       <r>  -16.9664    1.0000 </r>
       <r>  -16.9164    1.0000 </r>
       <r>  -16.9141    1.0000 </r>
       <r>  -16.5810    1.0000 </r>
       <r>  -16.5741    1.0000 </r>
       <r>  -15.3274    1.0000 </r>
       <r>  -15.3270    1.0000 </r>
       <r>  -15.3048    1.0000 </r>
       <r>  -14.9632    1.0000 </r>
       <r>  -14.9601    1.0000 </r>
       <r>  -14.4444    1.0000 </r>
       <r>  -13.7779    1.0000 </r>
       <r>  -13.7446    1.0000 </r>
       <r>  -13.6447    1.0000 </r>
       <r>  -13.6137    1.0000 </r>
       <r>  -13.5828    1.0000 </r>
       <r>  -12.3309    1.0000 </r>
       <r>  -12.3146    1.0000 </r>
       <r>  -11.7305    1.0000 </r>
       <r>  -11.6486    1.0000 </r>
       <r>  -11.4078    1.0000 </r>
       <r>  -11.0181    1.0000 </r>
       <r>  -10.8362    1.0000 </r>
       <r>  -10.8265    1.0000 </r>
       <r>  -10.7681    1.0000 </r>
       <r>  -10.7143    1.0000 </r>
       <r>  -10.6207    1.0000 </r>
       <r>  -10.4022    1.0000 </r>
       <r>  -10.2928    1.0000 </r>
       <r>   -9.8665    1.0000 </r>
       <r>   -9.8615    1.0000 </r>
       <r>   -9.5609    1.0000 </r>
       <r>   -9.5595    1.0000 </r>
       <r>   -9.4073    1.0000 </r>
       <r>   -9.2930    1.0000 </r>
       <r>   -9.2804    1.0000 </r>
       <r>   -9.2730    1.0000 </r>
       <r>   -9.2428    1.0000 </r>
       <r>   -9.1318    1.0000 </r>
       <r>   -9.1146    1.0000 </r>
       <r>   -9.0337    1.0000 </r>
       <r>   -8.8631    1.0000 </r>
       <r>   -8.8630    1.0000 </r>
       <r>   -8.8175    1.0000 </r>
       <r>   -8.8042    1.0000 </r>
       <r>   -8.8029    1.0000 </r>
       <r>   -8.4557    1.0000 </r>
       <r>   -8.3015    1.0000 </r>
       <r>   -8.2986    1.0000 </r>
       <r>   -8.1932    1.0000 </r>
       <r>   -8.1911    1.0000 </r>
       <r>   -8.1685    1.0000 </r>
       <r>   -8.0181    1.0000 </r>
       <r>   -7.8882    1.0000 </r>
       <r>   -7.8801    1.0000 </r>
       <r>   -7.5808    1.0000 </r>
       <r>   -7.4222    1.0000 </r>
       <r>   -7.4180    1.0000 </r>
       <r>   -7.3072    1.0000 </r>
       <r>   -7.2891    1.0000 </r>
       <r>   -7.2810    1.0000 </r>
       <r>   -7.1486    1.0000 </r>
       <r>   -6.8883    1.0000 </r>
       <r>   -6.8788    1.0000 </r>
       <r>   -6.1660    1.0000 </r>
       <r>   -6.1568    1.0000 </r>
       <r>   -5.4588    1.0000 </r>
       <r>   -5.4399    1.0000 </r>
       <r>   -5.1953    1.0000 </r>
       <r>   -5.1147    1.0000 </r>
       <r>   -5.1143    1.0000 </r>
       <r>   -4.8789    1.0000 </r>
       <r>   -4.5986    1.0000 </r>
       <r>   -4.5957    1.0000 </r>
       <r>   -1.2540    0.0000 </r>
       <r>   -1.2477    0.0000 </r>
       <r>   -0.5097    0.0000 </r>
       <r>   -0.4386    0.0000 </r>
       <r>   -0.3898    0.0000 </r>
       <r>   -0.3691    0.0000 </r>
       <r>   -0.3642    0.0000 </r>
       <r>   -0.2230    0.0000 </r>
       <r>   -0.0784    0.0000 </r>
       <r>    0.3321    0.0000 </r>
       <r>    0.5762    0.0000 </r>
       <r>    0.5857    0.0000 </r>
       <r>    0.6490    0.0000 </r>
       <r>    0.6775    0.0000 </r>
       <r>    0.7139    0.0000 </r>
       <r>    0.7467    0.0000 </r>
       <r>    0.8361    0.0000 </r>
       <r>    0.8996    0.0000 </r>
       <r>    0.9928    0.0000 </r>
       <r>    1.0575    0.0000 </r>
       <r>    1.1601    0.0000 </r>
       <r>    1.1608    0.0000 </r>
       <r>    1.2553    0.0000 </r>
       <r>    1.2676    0.0000 </r>
       <r>    1.5525    0.0000 </r>
       <r>    1.5671    0.0000 </r>
       <r>    1.6059    0.0000 </r>
       <r>    1.6218    0.0000 </r>
       <r>    1.6831    0.0000 </r>
       <r>    1.7147    0.0000 </r>
       <r>    1.7471    0.0000 </r>
       <r>    1.8075    0.0000 </r>
       <r>    1.9148    0.0000 </r>
       <r>    1.9256    0.0000 </r>
       <r>    2.0232    0.0000 </r>
       <r>    2.0298    0.0000 </r>
       <r>    2.0688    0.0000 </r>
       <r>    2.2261    0.0000 </r>
       <r>    2.2368    0.0000 </r>
       <r>    2.3249    0.0000 </r>
       <r>    2.3365    0.0000 </r>
      </set>
      <set comment="kpoint 5">
       <r>  -21.1738    1.0000 </r>
       <r>  -20.8697    1.0000 </r>
       <r>  -20.7403    1.0000 </r>
       <r>  -20.6942    1.0000 </r>
       <r>  -19.9765    1.0000 </r>
       <r>  -19.2334    1.0000 </r>
       <r>  -19.2060    1.0000 </r>
       <r>  -18.6226    1.0000 </r>
       <r>  -18.4455    1.0000 </r>
       <r>  -18.4425    1.0000 </r>
       <r>  -17.9885    1.0000 </r>
       <r>  -17.9435    1.0000 </r>
       <r>  -17.4298    1.0000 </r>
       <r>  -16.9674    1.0000 </r>
       <r>  -16.9177    1.0000 </r>
       <r>  -16.9139    1.0000 </r>
       <r>  -16.5855    1.0000 </r>
       <r>  -16.5731    1.0000 </r>
       <r>  -15.3275    1.0000 </r>
       <r>  -15.3269    1.0000 </r>
       <r>  -15.3052    1.0000 </r>
       <r>  -14.9615    1.0000 </r>
       <r>  -14.9560    1.0000 </r>
       <r>  -14.4548    1.0000 </r>
       <r>  -13.8003    1.0000 </r>
       <r>  -13.7544    1.0000 </r>
       <r>  -13.6444    1.0000 </r>
       <r>  -13.5997    1.0000 </r>
       <r>  -13.5496    1.0000 </r>
       <r>  -12.3450    1.0000 </r>
       <r>  -12.3165    1.0000 </r>
       <r>  -11.7279    1.0000 </r>
       <r>  -11.6489    1.0000 </r>
       <r>  -11.4025    1.0000 </r>
       <r>  -11.0181    1.0000 </r>
       <r>  -10.8474    1.0000 </r>
       <r>  -10.8338    1.0000 </r>
       <r>  -10.7816    1.0000 </r>
       <r>  -10.7116    1.0000 </r>
       <r>  -10.5920    1.0000 </r>
       <r>  -10.3980    1.0000 </r>
       <r>  -10.2928    1.0000 </r>
       <r>   -9.8699    1.0000 </r>
       <r>   -9.8608    1.0000 </r>
       <r>   -9.5601    1.0000 </r>
       <r>   -9.5577    1.0000 </r>
       <r>   -9.4097    1.0000 </r>
       <r>   -9.2966    1.0000 </r>
       <r>   -9.2808    1.0000 </r>
       <r>   -9.2703    1.0000 </r>
       <r>   -9.2424    1.0000 </r>
       <r>   -9.1420    1.0000 </r>
       <r>   -9.1146    1.0000 </r>
       <r>   -9.0246    1.0000 </r>
       <r>   -8.8634    1.0000 </r>
       <r>   -8.8630    1.0000 </r>
       <r>   -8.8174    1.0000 </r>
       <r>   -8.8044    1.0000 </r>
       <r>   -8.8026    1.0000 </r>
       <r>   -8.4530    1.0000 </r>
       <r>   -8.3072    1.0000 </r>
       <r>   -8.3024    1.0000 </r>
       <r>   -8.1888    1.0000 </r>
       <r>   -8.1861    1.0000 </r>
       <r>   -8.1674    1.0000 </r>
       <r>   -8.0211    1.0000 </r>
       <r>   -7.8924    1.0000 </r>
       <r>   -7.8781    1.0000 </r>
       <r>   -7.5831    1.0000 </r>
       <r>   -7.4258    1.0000 </r>
       <r>   -7.4190    1.0000 </r>
       <r>   -7.3170    1.0000 </r>
       <r>   -7.2860    1.0000 </r>
       <r>   -7.2728    1.0000 </r>
       <r>   -7.1477    1.0000 </r>
       <r>   -6.8889    1.0000 </r>
       <r>   -6.8725    1.0000 </r>
       <r>   -6.1664    1.0000 </r>
       <r>   -6.1515    1.0000 </r>
       <r>   -5.4725    1.0000 </r>
       <r>   -5.4399    1.0000 </r>
       <r>   -5.1897    1.0000 </r>
       <r>   -5.1146    1.0000 </r>
       <r>   -5.1143    1.0000 </r>
       <r>   -4.8742    1.0000 </r>
       <r>   -4.6007    1.0000 </r>
       <r>   -4.5962    1.0000 </r>
       <r>   -1.2535    0.0000 </r>
       <r>   -1.2427    0.0000 </r>
       <r>   -0.5390    0.0000 </r>
       <r>   -0.4441    0.0000 </r>
       <r>   -0.3876    0.0000 </r>
       <r>   -0.3655    0.0000 </r>
       <r>   -0.3554    0.0000 </r>
       <r>   -0.2020    0.0000 </r>
       <r>   -0.0736    0.0000 </r>
       <r>    0.3349    0.0000 </r>
       <r>    0.5639    0.0000 </r>
       <r>    0.5812    0.0000 </r>
       <r>    0.6298    0.0000 </r>
       <r>    0.6672    0.0000 </r>
       <r>    0.7031    0.0000 </r>
       <r>    0.7514    0.0000 </r>
       <r>    0.8470    0.0000 </r>
       <r>    0.9321    0.0000 </r>
       <r>    0.9811    0.0000 </r>
       <r>    1.0635    0.0000 </r>
       <r>    1.1497    0.0000 </r>
       <r>    1.1503    0.0000 </r>
       <r>    1.2717    0.0000 </r>
       <r>    1.2922    0.0000 </r>
       <r>    1.5276    0.0000 </r>
       <r>    1.5533    0.0000 </r>
       <r>    1.6048    0.0000 </r>
       <r>    1.6274    0.0000 </r>
       <r>    1.6883    0.0000 </r>
       <r>    1.7347    0.0000 </r>
       <r>    1.7532    0.0000 </r>
       <r>    1.8283    0.0000 </r>
       <r>    1.9029    0.0000 </r>
       <r>    1.9224    0.0000 </r>
       <r>    2.0085    0.0000 </r>
       <r>    2.0341    0.0000 </r>
       <r>    2.0818    0.0000 </r>
       <r>    2.2260    0.0000 </r>
       <r>    2.2455    0.0000 </r>
       <r>    2.3266    0.0000 </r>
       <r>    2.3280    0.0000 </r>
      </set>
      <set comment="kpoint 6">
       <r>  -21.1716    1.0000 </r>
       <r>  -20.8844    1.0000 </r>
       <r>  -20.7403    1.0000 </r>
       <r>  -20.6759    1.0000 </r>
       <r>  -19.9895    1.0000 </r>
       <r>  -19.2334    1.0000 </r>
       <r>  -19.1913    1.0000 </r>
       <r>  -18.6257    1.0000 </r>
       <r>  -18.4461    1.0000 </r>
       <r>  -18.4414    1.0000 </r>
       <r>  -18.0091    1.0000 </r>
       <r>  -17.9423    1.0000 </r>
       <r>  -17.4086    1.0000 </r>
       <r>  -16.9687    1.0000 </r>
       <r>  -16.9191    1.0000 </r>
       <r>  -16.9135    1.0000 </r>
       <r>  -16.5911    1.0000 </r>
       <r>  -16.5718    1.0000 </r>
       <r>  -15.3276    1.0000 </r>
       <r>  -15.3268    1.0000 </r>
       <r>  -15.3056    1.0000 </r>
       <r>  -14.9595    1.0000 </r>
       <r>  -14.9508    1.0000 </r>
       <r>  -14.4677    1.0000 </r>
       <r>  -13.8219    1.0000 </r>
       <r>  -13.7642    1.0000 </r>
       <r>  -13.6442    1.0000 </r>
       <r>  -13.5847    1.0000 </r>
       <r>  -13.5141    1.0000 </r>
       <r>  -12.3628    1.0000 </r>
       <r>  -12.3188    1.0000 </r>
       <r>  -11.7248    1.0000 </r>
       <r>  -11.6494    1.0000 </r>
       <r>  -11.3958    1.0000 </r>
       <r>  -11.0181    1.0000 </r>
       <r>  -10.8606    1.0000 </r>
       <r>  -10.8445    1.0000 </r>
       <r>  -10.7904    1.0000 </r>
       <r>  -10.7089    1.0000 </r>
       <r>  -10.5625    1.0000 </r>
       <r>  -10.3929    1.0000 </r>
       <r>  -10.2927    1.0000 </r>
       <r>   -9.8742    1.0000 </r>
       <r>   -9.8600    1.0000 </r>
       <r>   -9.5591    1.0000 </r>
       <r>   -9.5553    1.0000 </r>
       <r>   -9.4127    1.0000 </r>
       <r>   -9.3003    1.0000 </r>
       <r>   -9.2815    1.0000 </r>
       <r>   -9.2677    1.0000 </r>
       <r>   -9.2419    1.0000 </r>
       <r>   -9.1527    1.0000 </r>
       <r>   -9.1146    1.0000 </r>
       <r>   -9.0150    1.0000 </r>
       <r>   -8.8638    1.0000 </r>
       <r>   -8.8630    1.0000 </r>
       <r>   -8.8173    1.0000 </r>
       <r>   -8.8045    1.0000 </r>
       <r>   -8.8021    1.0000 </r>
       <r>   -8.4496    1.0000 </r>
       <r>   -8.3136    1.0000 </r>
       <r>   -8.3067    1.0000 </r>
       <r>   -8.1844    1.0000 </r>
       <r>   -8.1809    1.0000 </r>
       <r>   -8.1651    1.0000 </r>
       <r>   -8.0248    1.0000 </r>
       <r>   -7.8977    1.0000 </r>
       <r>   -7.8756    1.0000 </r>
       <r>   -7.5858    1.0000 </r>
       <r>   -7.4299    1.0000 </r>
       <r>   -7.4202    1.0000 </r>
       <r>   -7.3286    1.0000 </r>
       <r>   -7.2822    1.0000 </r>
       <r>   -7.2632    1.0000 </r>
       <r>   -7.1467    1.0000 </r>
       <r>   -6.8896    1.0000 </r>
       <r>   -6.8650    1.0000 </r>
       <r>   -6.1670    1.0000 </r>
       <r>   -6.1447    1.0000 </r>
       <r>   -5.4890    1.0000 </r>
       <r>   -5.4400    1.0000 </r>
       <r>   -5.1835    1.0000 </r>
       <r>   -5.1147    1.0000 </r>
       <r>   -5.1142    1.0000 </r>
       <r>   -4.8684    1.0000 </r>
       <r>   -4.6034    1.0000 </r>
       <r>   -4.5967    1.0000 </r>
       <r>   -1.2528    0.0000 </r>
       <r>   -1.2363    0.0000 </r>
       <r>   -0.5688    0.0000 </r>
       <r>   -0.4501    0.0000 </r>
       <r>   -0.3869    0.0000 </r>
       <r>   -0.3621    0.0000 </r>
       <r>   -0.3471    0.0000 </r>
       <r>   -0.1774    0.0000 </r>
       <r>   -0.0675    0.0000 </r>
       <r>    0.3383    0.0000 </r>
       <r>    0.5467    0.0000 </r>
       <r>    0.5745    0.0000 </r>
       <r>    0.6127    0.0000 </r>
       <r>    0.6566    0.0000 </r>
       <r>    0.6915    0.0000 </r>
       <r>    0.7599    0.0000 </r>
       <r>    0.8550    0.0000 </r>
       <r>    0.9601    0.0000 </r>
       <r>    0.9754    0.0000 </r>
       <r>    1.0699    0.0000 </r>
       <r>    1.1396    0.0000 </r>
       <r>    1.1443    0.0000 </r>
       <r>    1.2867    0.0000 </r>
       <r>    1.3179    0.0000 </r>
       <r>    1.5001    0.0000 </r>
       <r>    1.5391    0.0000 </r>
       <r>    1.6042    0.0000 </r>
       <r>    1.6401    0.0000 </r>
       <r>    1.6957    0.0000 </r>
       <r>    1.7495    0.0000 </r>
       <r>    1.7629    0.0000 </r>
       <r>    1.8432    0.0000 </r>
       <r>    1.8861    0.0000 </r>
       <r>    1.9255    0.0000 </r>
       <r>    1.9929    0.0000 </r>
       <r>    2.0426    0.0000 </r>
       <r>    2.0972    0.0000 </r>
       <r>    2.2210    0.0000 </r>
       <r>    2.2528    0.0000 </r>
       <r>    2.3127    0.0000 </r>
       <r>    2.3317    0.0000 </r>
      </set>
      <set comment="kpoint 7">
       <r>  -21.1690    1.0000 </r>
       <r>  -20.8992    1.0000 </r>
       <r>  -20.7403    1.0000 </r>
       <r>  -20.6566    1.0000 </r>
       <r>  -20.0046    1.0000 </r>
       <r>  -19.2333    1.0000 </r>
       <r>  -19.1741    1.0000 </r>
       <r>  -18.6296    1.0000 </r>
       <r>  -18.4467    1.0000 </r>
       <r>  -18.4401    1.0000 </r>
       <r>  -18.0319    1.0000 </r>
       <r>  -17.9410    1.0000 </r>
       <r>  -17.3850    1.0000 </r>
       <r>  -16.9704    1.0000 </r>
       <r>  -16.9208    1.0000 </r>
       <r>  -16.9131    1.0000 </r>
       <r>  -16.5979    1.0000 </r>
       <r>  -16.5703    1.0000 </r>
       <r>  -15.3278    1.0000 </r>
       <r>  -15.3266    1.0000 </r>
       <r>  -15.3062    1.0000 </r>
       <r>  -14.9571    1.0000 </r>
       <r>  -14.9445    1.0000 </r>
       <r>  -14.4827    1.0000 </r>
       <r>  -13.8425    1.0000 </r>
       <r>  -13.7734    1.0000 </r>
       <r>  -13.6441    1.0000 </r>
       <r>  -13.5693    1.0000 </r>
       <r>  -13.4768    1.0000 </r>
       <r>  -12.3839    1.0000 </r>
       <r>  -12.3215    1.0000 </r>
       <r>  -11.7213    1.0000 </r>
       <r>  -11.6499    1.0000 </r>
       <r>  -11.3877    1.0000 </r>
       <r>  -11.0182    1.0000 </r>
       <r>  -10.8755    1.0000 </r>
       <r>  -10.8578    1.0000 </r>
       <r>  -10.7955    1.0000 </r>
       <r>  -10.7064    1.0000 </r>
       <r>  -10.5323    1.0000 </r>
       <r>  -10.3871    1.0000 </r>
       <r>  -10.2927    1.0000 </r>
       <r>   -9.8796    1.0000 </r>
       <r>   -9.8589    1.0000 </r>
       <r>   -9.5579    1.0000 </r>
       <r>   -9.5525    1.0000 </r>
       <r>   -9.4162    1.0000 </r>
       <r>   -9.3042    1.0000 </r>
       <r>   -9.2825    1.0000 </r>
       <r>   -9.2653    1.0000 </r>
       <r>   -9.2414    1.0000 </r>
       <r>   -9.1634    1.0000 </r>
       <r>   -9.1146    1.0000 </r>
       <r>   -9.0053    1.0000 </r>
       <r>   -8.8643    1.0000 </r>
       <r>   -8.8630    1.0000 </r>
       <r>   -8.8171    1.0000 </r>
       <r>   -8.8047    1.0000 </r>
       <r>   -8.8016    1.0000 </r>
       <r>   -8.4455    1.0000 </r>
       <r>   -8.3203    1.0000 </r>
       <r>   -8.3113    1.0000 </r>
       <r>   -8.1814    1.0000 </r>
       <r>   -8.1752    1.0000 </r>
       <r>   -8.1610    1.0000 </r>
       <r>   -8.0290    1.0000 </r>
       <r>   -7.9039    1.0000 </r>
       <r>   -7.8723    1.0000 </r>
       <r>   -7.5888    1.0000 </r>
       <r>   -7.4344    1.0000 </r>
       <r>   -7.4216    1.0000 </r>
       <r>   -7.3412    1.0000 </r>
       <r>   -7.2778    1.0000 </r>
       <r>   -7.2529    1.0000 </r>
       <r>   -7.1458    1.0000 </r>
       <r>   -6.8904    1.0000 </r>
       <r>   -6.8568    1.0000 </r>
       <r>   -6.1677    1.0000 </r>
       <r>   -6.1364    1.0000 </r>
       <r>   -5.5077    1.0000 </r>
       <r>   -5.4400    1.0000 </r>
       <r>   -5.1771    1.0000 </r>
       <r>   -5.1147    1.0000 </r>
       <r>   -5.1140    1.0000 </r>
       <r>   -4.8614    1.0000 </r>
       <r>   -4.6068    1.0000 </r>
       <r>   -4.5973    1.0000 </r>
       <r>   -1.2519    0.0000 </r>
       <r>   -1.2286    0.0000 </r>
       <r>   -0.5987    0.0000 </r>
       <r>   -0.4563    0.0000 </r>
       <r>   -0.3868    0.0000 </r>
       <r>   -0.3593    0.0000 </r>
       <r>   -0.3394    0.0000 </r>
       <r>   -0.1504    0.0000 </r>
       <r>   -0.0600    0.0000 </r>
       <r>    0.3421    0.0000 </r>
       <r>    0.5250    0.0000 </r>
       <r>    0.5649    0.0000 </r>
       <r>    0.5995    0.0000 </r>
       <r>    0.6463    0.0000 </r>
       <r>    0.6808    0.0000 </r>
       <r>    0.7697    0.0000 </r>
       <r>    0.8562    0.0000 </r>
       <r>    0.9644    0.0000 </r>
       <r>    0.9977    0.0000 </r>
       <r>    1.0746    0.0000 </r>
       <r>    1.1302    0.0000 </r>
       <r>    1.1450    0.0000 </r>
       <r>    1.2987    0.0000 </r>
       <r>    1.3440    0.0000 </r>
[...]
   <v name="MAGDIPOLOUT">      0.00000000      0.00000000      0.00000000</v>
  </separator>
  <dos>
   <i name="efermi">     -4.53918797 </i>
   <total>
    <array>
     <dimension dim="1">gridpoints</dimension>
     <dimension dim="2">spin</dimension>
     <field>energy</field>
     <field>total</field>
     <field>integrated</field>
     <set>
      <set comment="spin 1">
       <r>   -22.3541     0.0000     0.0000 </r>
       <r>   -22.2678     0.0000     0.0000 </r>
       <r>   -22.1816     0.0000     0.0000 </r>
       <r>   -22.0953     0.0000     0.0000 </r>
       <r>   -22.0090     0.0000     0.0000 </r>
       <r>   -21.9227     0.0000     0.0000 </r>
       <r>   -21.8365     0.0000     0.0000 </r>
       <r>   -21.7502     0.0000     0.0000 </r>
       <r>   -21.6639     0.0000     0.0000 </r>
       <r>   -21.5777     0.0000     0.0000 </r>
       <r>   -21.4914     0.0000     0.0000 </r>
       <r>   -21.4051     0.0000     0.0000 </r>
       <r>   -21.3189     0.0000     0.0000 </r>
       <r>   -21.2326     0.0000     0.0000 </r>
       <r>   -21.1463     8.7172     0.7520 </r>
       <r>   -21.0600    16.6672     2.2798 </r>
       <r>   -20.9738    10.2305     3.2591 </r>
       <r>   -20.8875     3.9512     3.6424 </r>
       <r>   -20.8012     3.8202     4.0000 </r>
       <r>   -20.7150    25.5360     6.2030 </r>
       <r>   -20.6287     3.0075     6.4945 </r>
       <r>   -20.5424     2.8691     6.7496 </r>
       <r>   -20.4561     2.9924     7.0284 </r>
       <r>   -20.3699     8.3622     7.7606 </r>
       <r>   -20.2836     5.4253     8.2700 </r>
       <r>   -20.1973     7.8724     8.9832 </r>
       <r>   -20.1111     2.8858     9.2535 </r>
       <r>   -20.0248     2.8980     9.5188 </r>
       <r>   -19.9385     4.9838     9.9967 </r>
       <r>   -19.8523     0.0000    10.0000 </r>
       <r>   -19.7660     0.0000    10.0000 </r>
       <r>   -19.6797     0.0000    10.0000 </r>
       <r>   -19.5934     0.0000    10.0000 </r>
       <r>   -19.5072     0.0000    10.0000 </r>
       <r>   -19.4209     0.0000    10.0000 </r>
       <r>   -19.3346     0.0000    10.0000 </r>
       <r>   -19.2484     0.3334    10.0288 </r>
       <r>   -19.1621    27.9875    12.4433 </r>
       <r>   -19.0758     2.5200    12.6893 </r>
       <r>   -18.9895     2.4850    12.9166 </r>
       <r>   -18.9033     6.4546    13.4908 </r>
       <r>   -18.8170     5.4838    14.0100 </r>
       <r>   -18.7307     8.1627    14.7752 </r>
       <r>   -18.6445     6.0184    15.4288 </r>
       <r>   -18.5582     5.7256    16.0000 </r>
       <r>   -18.4719     0.2796    16.0241 </r>
       <r>   -18.3856    41.7145    19.6229 </r>
       <r>   -18.2994     8.4625    20.4377 </r>
       <r>   -18.2131     7.5036    21.1236 </r>
       <r>   -18.1268     2.5865    21.3578 </r>
       <r>   -18.0406     2.3446    21.5700 </r>
       <r>   -17.9543     3.9278    21.9100 </r>
       <r>   -17.8680    23.4502    24.0000 </r>
       <r>   -17.7818     0.0000    24.0000 </r>
       <r>   -17.6955     0.0000    24.0000 </r>
       <r>   -17.6092     0.0000    24.0000 </r>
       <r>   -17.5229     0.0000    24.0000 </r>
       <r>   -17.4367     3.0076    24.2595 </r>
       <r>   -17.3504     2.5851    24.4953 </r>
       <r>   -17.2641     2.2382    24.6935 </r>
       <r>   -17.1779     2.4041    24.9095 </r>
       <r>   -17.0916     7.2330    25.5574 </r>
       <r>   -17.0053    16.3153    27.0476 </r>
       <r>   -16.9190    31.4203    29.8209 </r>
       <r>   -16.8328    15.2163    31.7559 </r>
       <r>   -16.7465     6.8210    32.3929 </r>
       <r>   -16.6602     8.8840    33.2047 </r>
       <r>   -16.5740    10.3980    34.1642 </r>
       <r>   -16.4877    17.1101    36.0000 </r>
       <r>   -16.4014     0.0000    36.0000 </r>
       <r>   -16.3151     0.0000    36.0000 </r>
       <r>   -16.2289     0.0000    36.0000 </r>
       <r>   -16.1426     0.0000    36.0000 </r>
       <r>   -16.0563     0.0000    36.0000 </r>
       <r>   -15.9701     0.0000    36.0000 </r>
       <r>   -15.8838     0.0000    36.0000 </r>
       <r>   -15.7975     0.0000    36.0000 </r>
       <r>   -15.7113     0.0000    36.0000 </r>
       <r>   -15.6250     0.0000    36.0000 </r>
       <r>   -15.5387     0.0000    36.0000 </r>
       <r>   -15.4524     0.0000    36.0000 </r>
       <r>   -15.3662     0.0000    36.0000 </r>
       <r>   -15.2799    69.5473    41.9999 </r>
       <r>   -15.1936     0.0000    42.0000 </r>
       <r>   -15.1074     0.0000    42.0000 </r>
       <r>   -15.0211     0.0000    42.0000 </r>
       <r>   -14.9348    15.8933    43.3711 </r>
       <r>   -14.8485    15.9690    44.9659 </r>
       <r>   -14.7623    12.5243    46.0829 </r>
       <r>   -14.6760     9.4482    46.9854 </r>
       <r>   -14.5897     2.8779    47.2494 </r>
       <r>   -14.5035     2.8719    47.5164 </r>
       <r>   -14.4172     4.9859    47.9969 </r>
       <r>   -14.3309     0.0000    48.0000 </r>
       <r>   -14.2447     0.0000    48.0000 </r>
       <r>   -14.1584     0.0000    48.0000 </r>
       <r>   -14.0721     0.0000    48.0000 </r>
       <r>   -13.9858    10.0259    48.8649 </r>
       <r>   -13.8996     4.6380    49.4072 </r>
       <r>   -13.8133     7.6910    50.0977 </r>
       <r>   -13.7270    21.6179    52.1399 </r>
       <r>   -13.6408    17.1179    53.8125 </r>
       <r>   -13.5545     6.2843    54.7205 </r>
       <r>   -13.4682     5.5172    55.2442 </r>
       <r>   -13.3819     9.0038    56.0505 </r>
       <r>   -13.2957     6.9267    56.6996 </r>
       <r>   -13.2094     1.5267    56.8317 </r>
       <r>   -13.1231     1.5200    56.9646 </r>
       <r>   -13.0369     1.8416    57.1268 </r>
       <r>   -12.9506     7.7358    57.8015 </r>
       <r>   -12.8643     3.8870    58.1696 </r>
       <r>   -12.7780     4.0353    58.5485 </r>
       <r>   -12.6918     4.5609    58.9973 </r>
       <r>   -12.6055     1.6079    59.1388 </r>
       <r>   -12.5192     1.8543    59.2988 </r>
       <r>   -12.4330     2.0379    59.4775 </r>
       <r>   -12.3467    14.9604    60.7907 </r>
       <r>   -12.2604    11.4423    62.0000 </r>
       <r>   -12.1742     0.0000    62.0000 </r>
       <r>   -12.0879     0.0000    62.0000 </r>
       <r>   -12.0016     0.0000    62.0000 </r>
       <r>   -11.9153     0.0000    62.0000 </r>
       <r>   -11.8291     0.0000    62.0000 </r>
       <r>   -11.7428     0.2475    62.0214 </r>
       <r>   -11.6565    35.6058    65.0931 </r>
       <r>   -11.5703     4.3341    66.0000 </r>
       <r>   -11.4840     0.0000    66.0000 </r>
       <r>   -11.3977     3.7042    66.3196 </r>
       <r>   -11.3114     4.9484    66.8006 </r>
       <r>   -11.2252     7.5252    67.4863 </r>
       <r>   -11.1389     7.4700    68.1870 </r>
       <r>   -11.0526     9.4821    69.0563 </r>
       <r>   -10.9664    30.9838    71.7461 </r>
       <r>   -10.8801    16.0110    73.5307 </r>
       <r>   -10.7938    22.5625    75.5952 </r>
       <r>   -10.7075     7.5870    76.3562 </r>
       <r>   -10.6213    18.7174    78.1398 </r>
       <r>   -10.5350     1.9664    78.4039 </r>
       <r>   -10.4487     1.6049    78.5718 </r>
       <r>   -10.3625     9.6714    79.4062 </r>
       <r>   -10.2762    40.2400    82.9229 </r>
       <r>   -10.1899     6.8322    83.5284 </r>
       <r>   -10.1037     4.9758    83.9985 </r>
       <r>   -10.0174     5.3348    84.5294 </r>
       <r>    -9.9311     7.3053    85.2343 </r>
       <r>    -9.8448    24.5219    87.3857 </r>
       <r>    -9.7586     0.0000    88.0000 </r>
       <r>    -9.6723     0.0000    88.0000 </r>
       <r>    -9.5860     0.0016    88.0001 </r>
       <r>    -9.4998    39.4481    91.4034 </r>
       <r>    -9.4135    19.6922    93.6666 </r>
       <r>    -9.3272    17.2033    95.3063 </r>
       <r>    -9.2409    59.2194   100.6611 </r>
       <r>    -9.1547    25.3468   103.6446 </r>
       <r>    -9.0684    26.6488   106.0004 </r>
       <r>    -8.9821     6.4864   106.5600 </r>
       <r>    -8.8959    16.4297   108.0239 </r>
       <r>    -8.8096    72.3148   114.4676 </r>
       <r>    -8.7233    21.2004   118.0000 </r>
       <r>    -8.6370     0.0000   118.0000 </r>
       <r>    -8.5508     0.0000   118.0000 </r>
       <r>    -8.4645     0.5721   118.0494 </r>
       <r>    -8.3782    20.9479   119.9607 </r>
       <r>    -8.2920    41.7666   123.8357 </r>
       <r>    -8.2057     4.6860   124.4043 </r>
       <r>    -8.1194    42.8884   128.7303 </r>
       <r>    -8.0332    26.9435   131.0973 </r>
       <r>    -7.9469    18.8405   133.2709 </r>
       <r>    -7.8606    14.6246   134.5682 </r>
       <r>    -7.7743    15.7093   135.9981 </r>
       <r>    -7.6881     0.0000   136.0000 </r>
       <r>    -7.6018    11.3171   136.9763 </r>
       <r>    -7.5155    22.8345   139.2319 </r>
       <r>    -7.4293    16.3388   140.7526 </r>
       <r>    -7.3430    21.6609   143.0831 </r>
       <r>    -7.2567    30.7769   145.8295 </r>
       <r>    -7.1704    21.0350   147.8329 </r>
       <r>    -7.0842    15.2392   149.3152 </r>
       <r>    -6.9979     4.8625   149.7574 </r>
       <r>    -6.9116     9.4670   150.6199 </r>
       <r>    -6.8254    21.6852   152.6350 </r>
       <r>    -6.7391    15.0290   154.0000 </r>
       <r>    -6.6528     0.0000   154.0000 </r>
       <r>    -6.5666     0.0000   154.0000 </r>
       <r>    -6.4803     0.0000   154.0000 </r>
       <r>    -6.3940     0.0000   154.0000 </r>
       <r>    -6.3077     0.0000   154.0000 </r>
       <r>    -6.2215     0.0000   154.0000 </r>
       <r>    -6.1352    27.9962   156.4153 </r>
       <r>    -6.0489     4.3239   156.8160 </r>
       <r>    -5.9627     6.0410   157.3879 </r>
       <r>    -5.8764     5.3410   157.9331 </r>
       <r>    -5.7901     5.6838   158.4399 </r>
       <r>    -5.7038     6.7945   159.0583 </r>
       <r>    -5.6176     2.5458   159.2876 </r>
       <r>    -5.5313     2.5238   159.5194 </r>
       <r>    -5.4450     9.6956   160.4031 </r>
       <r>    -5.3588     0.0000   162.0000 </r>
       <r>    -5.2725     0.0000   162.0000 </r>
       <r>    -5.1862     3.6369   162.3138 </r>
       <r>    -5.0999    63.8955   167.8881 </r>
       <r>    -5.0137     0.0000   168.0000 </r>
       <r>    -4.9274     0.0000   168.0000 </r>
       <r>    -4.8411     6.4214   168.5540 </r>
       <r>    -4.7549     6.9102   169.2007 </r>
       <r>    -4.6686    17.1761   170.8687 </r>
       <r>    -4.5823    34.4852   173.9795 </r>
       <r>    -4.4961     0.0000   174.0000 </r>
       <r>    -4.4098     0.0000   174.0000 </r>
       <r>    -4.3235     0.0000   174.0000 </r>
       <r>    -4.2372     0.0000   174.0000 </r>
       <r>    -4.1510     0.0000   174.0000 </r>
       <r>    -4.0647     0.0000   174.0000 </r>
       <r>    -3.9784     0.0000   174.0000 </r>
       <r>    -3.8922     0.0000   174.0000 </r>
       <r>    -3.8059     0.0000   174.0000 </r>
       <r>    -3.7196     0.0000   174.0000 </r>
       <r>    -3.6333     0.0000   174.0000 </r>
       <r>    -3.5471     0.0000   174.0000 </r>
       <r>    -3.4608     0.0000   174.0000 </r>
       <r>    -3.3745     0.0000   174.0000 </r>
       <r>    -3.2883     0.0000   174.0000 </r>
       <r>    -3.2020     0.0000   174.0000 </r>
       <r>    -3.1157     0.0000   174.0000 </r>
       <r>    -3.0294     0.0000   174.0000 </r>
       <r>    -2.9432     0.0000   174.0000 </r>
       <r>    -2.8569     0.0000   174.0000 </r>
       <r>    -2.7706     0.0000   174.0000 </r>
       <r>    -2.6844     0.0000   174.0000 </r>
       <r>    -2.5981     0.0000   174.0000 </r>
       <r>    -2.5118     0.0000   174.0000 </r>
       <r>    -2.4256     0.0000   174.0000 </r>
       <r>    -2.3393     0.0000   174.0000 </r>
       <r>    -2.2530     0.0000   174.0000 </r>
       <r>    -2.1667     0.0000   174.0000 </r>
       <r>    -2.0805     0.0000   174.0000 </r>
       <r>    -1.9942     0.0000   174.0000 </r>
       <r>    -1.9079     0.0000   174.0000 </r>
       <r>    -1.8217     0.0000   174.0000 </r>
       <r>    -1.7354     0.0000   174.0000 </r>
       <r>    -1.6491     0.0000   174.0000 </r>
       <r>    -1.5628     0.0000   174.0000 </r>
       <r>    -1.4766     0.0000   174.0000 </r>
       <r>    -1.3903     0.0000   174.0000 </r>
       <r>    -1.3040     0.0000   174.0000 </r>
       <r>    -1.2178    28.7109   176.4769 </r>
       <r>    -1.1315     4.4074   176.8877 </r>
       <r>    -1.0452     8.1894   177.6400 </r>
       <r>    -0.9590     6.1009   178.2289 </r>
       <r>    -0.8727     7.9836   178.9621 </r>
       <r>    -0.7864     2.5446   179.1914 </r>
       <r>    -0.7001     2.0163   179.3747 </r>
       <r>    -0.6139     1.9004   179.5653 </r>
       <r>    -0.5276     4.7489   179.9769 </r>
       <r>    -0.4413    16.8341   181.7002 </r>
       <r>    -0.3551    41.0248   185.3273 </r>
       <r>    -0.2688    18.2294   187.9116 </r>
       <r>    -0.1825     3.8443   188.3325 </r>
       <r>    -0.0962     1.8294   188.5245 </r>
       <r>    -0.0100     9.5238   189.3957 </r>
       <r>     0.0763     5.1412   189.9114 </r>
       <r>     0.1626    16.4196   191.3580 </r>
       <r>     0.2488    13.0009   192.6014 </r>
       <r>     0.3351    18.4829   194.2998 </r>
       <r>     0.4214    14.0156   195.8106 </r>
       <r>     0.5077    13.5918   197.1125 </r>
       <r>     0.5939    42.2493   200.8385 </r>
       <r>     0.6802    24.5290   203.3421 </r>
       <r>     0.7665    16.7974   204.9332 </r>
       <r>     0.8527    19.4978   206.6989 </r>
       <r>     0.9390    26.3741   209.1486 </r>
       <r>     1.0253    14.5636   210.5576 </r>
       <r>     1.1115    27.9504   213.0498 </r>
       <r>     1.1978    32.1140   216.0324 </r>
       <r>     1.2841    22.1734   218.1336 </r>
       <r>     1.3704    24.9777   220.4165 </r>
       <r>     1.4566    26.3832   222.8498 </r>
       <r>     1.5429    19.6602   224.7472 </r>
       <r>     1.6292    35.2281   227.9494 </r>
       <r>     1.7154    34.5737   231.3337 </r>
       <r>     1.8017    33.7036   234.4592 </r>
       <r>     1.8880    31.2871   237.3493 </r>
       <r>     1.9743    46.6014   241.6754 </r>
       <r>     2.0605    42.2483   245.6957 </r>
       <r>     2.1468    33.7432   248.9498 </r>
       <r>     2.2331    39.5938   252.6016 </r>
       <r>     2.3193    25.1077   255.0517 </r>
       <r>     2.4056     8.5691   256.0000 </r>
       <r>     2.4919     0.0000   256.0000 </r>
       <r>     2.5782     0.0000   256.0000 </r>
       <r>     2.6644     0.0000   256.0000 </r>
       <r>     2.7507     0.0000   256.0000 </r>
       <r>     2.8370     0.0000   256.0000 </r>
       <r>     2.9232     0.0000   256.0000 </r>
       <r>     3.0095     0.0000   256.0000 </r>
       <r>     3.0958     0.0000   256.0000 </r>
       <r>     3.1820     0.0000   256.0000 </r>
       <r>     3.2683     0.0000   256.0000 </r>
       <r>     3.3546     0.0000   256.0000 </r>
       <r>     3.4409     0.0000   256.0000 </r>
       <r>     3.5271     0.0000   256.0000 </r>
      </set>
     </set>
    </array>
   </total>
  </dos>
 </calculation>
 <structure name="finalpos" >
  <crystal>
   <varray name="basis" >
    <v>      14.92158528       0.00049688       0.00000000 </v>
    <v>      -7.46036279      12.92233364       0.00000000 </v>
    <v>       0.00000000       0.00000000      20.00000000 </v>
   </varray>
   <i name="volume">   3856.50820775 </i>
   <varray name="rec_basis" >
    <v>       0.06701572       0.03868973       0.00000000 </v>
    <v>      -0.00000258       0.07738392       0.00000000 </v>
    <v>       0.00000000       0.00000000       0.05000000 </v>
   </varray>
  </crystal>
  <varray name="positions" >
   <v>       0.94474509       0.52685560       0.44509658 </v>
   <v>       0.93394095       0.41941686       0.53920588 </v>
   <v>       0.89906959       0.55951419       0.38935580 </v>
   <v>       0.88390447       0.44624078       0.49034645 </v>
   <v>       0.76905952       0.38789737       0.48832291 </v>
   <v>       0.71146867       0.43878465       0.48836211 </v>
   <v>       0.60291840       0.38343184       0.48838843 </v>
   <v>       0.55204590       0.27496642       0.48843127 </v>
   <v>       0.60739268       0.22176057       0.48834475 </v>
   <v>       0.71586093       0.27934701       0.48834098 </v>
   <v>       0.21716745       0.60745108       0.50266794 </v>
   <v>       0.27478975       0.55659785       0.50260457 </v>
   <v>       0.38333725       0.61199218       0.50259682 </v>
   <v>       0.43417230       0.72045994       0.50258469 </v>
   <v>       0.37878441       0.77361880       0.50264577 </v>
   <v>       0.27031494       0.71599520       0.50267043 </v>
   <v>       0.55086569       0.10691495       0.49034599 </v>
   <v>       0.57069423       0.04606526       0.44513050 </v>
   <v>       0.51215060       0.93849079       0.45177289 </v>
   <v>       0.64915384       0.09175435       0.38944848 </v>
   <v>       0.54455573       0.43990945       0.49039708 </v>
   <v>       0.46397143       0.42010627       0.44512260 </v>
   <v>       0.41491568       0.47863425       0.45173200 </v>
   <v>       0.43137378       0.34171023       0.38941248 </v>
   <v>       0.05231147       0.57590835       0.45176041 </v>
   <v>       0.43523083       0.88845447       0.50059171 </v>
   <v>       0.41542257       0.94930350       0.54581374 </v>
   <v>       0.47389533       0.05687541       0.53912943 </v>
   <v>       0.33716297       0.90364752       0.60160921 </v>
   <v>       0.44172295       0.55553535       0.50055600 </v>
   <v>       0.52231721       0.57533334       0.54582403 </v>
   <v>       0.57137577       0.51681273       0.53920837 </v>
   <v>       0.55491692       0.65368850       0.60156397 </v>
   <v>       0.10233371       0.54909217       0.50062450 </v>
   <v>       0.04150849       0.46852338       0.54589966 </v>
   <v>       0.08726119       0.43607908       0.60171865 </v>
   <v>       0.95458088       0.59384188       0.34806063 </v>
   <v>       0.87972877       0.61814854       0.40608221 </v>
   <v>       0.88595136       0.35857964       0.57482975 </v>
   <v>       0.46770417       0.23063561       0.48905122 </v>
   <v>       0.76020254       0.23934665       0.48888200 </v>
   <v>       0.75147322       0.52313088       0.48888876 </v>
   <v>       0.51850639       0.76483695       0.50201262 </v>
   <v>       0.22591889       0.75595171       0.50215101 </v>
   <v>       0.23479925       0.47224333       0.50206310 </v>
   <v>       0.52502849       0.89047505       0.41618059 </v>
   <v>       0.65549664       0.16343037       0.36982274 </v>
   <v>       0.62798907       0.03629208       0.34813141 </v>
   <v>       0.72703906       0.11095141       0.40624970 </v>
   <v>       0.35409657       0.46577929       0.41608685 </v>
   <v>       0.49685686       0.33568084       0.36972824 </v>
   <v>       0.39682968       0.36269143       0.34814783 </v>
   <v>       0.37295328       0.26370952       0.40620682 </v>
   <v>       0.10031641       0.63674920       0.41615010 </v>
   <v>       0.82746761       0.49412097       0.36969204 </v>
   <v>       0.46093965       0.10486661       0.57469451 </v>
   <v>       0.33094725       0.83202755       0.62124103 </v>
   <v>       0.25917556       0.88434458       0.58495067 </v>
   <v>       0.35848384       0.95916536       0.64290493 </v>
   <v>       0.63220020       0.52966896       0.57484828 </v>
   <v>       0.48942666       0.65964641       0.62131338 </v>
   <v>       0.61328623       0.73170946       0.58477162 </v>
   <v>       0.58949822       0.63267059       0.64278491 </v>
   <v>       0.15872214       0.50163947       0.62139163 </v>
   <v>       0.10689653       0.37764089       0.58504123 </v>
   <v>       0.03170538       0.40164059       0.64297876 </v>
  </varray>
 </structure>
</modeling>
