<?xml version="1.0" encoding="ISO-8859-1"?>
<modeling>
 <generator>
  <i name="program" type="string">vasp </i>
  <i name="version" type="string">5.4.4.18Apr17-6-g9f103f2a35  </i>
  <i name="subversion" type="string">(build Jun 07 2020 16:50:00) complex            parallel </i>
  <i name="platform" type="string">LinuxIFC </i>
  <i name="date" type="string">2023 03 05 </i>
  <i name="time" type="string">15:51:44 </i>
 </generator>
 <incar>
  <i type="string" name="SYSTEM">Simulation for cell shape cell volume r</i>
  <i type="int" name="ISTART">     1</i>
  <i type="string" name="PREC">high</i>
  <i type="string" name="ALGO">48</i>
  <i type="int" name="ICHARG">    11</i>
  <i type="int" name="NELM">   200</i>
  <i type="int" name="IBRION">    -1</i>
  <i name="EDIFF">      0.00001000</i>
  <i name="EDIFFG">     -0.01000000</i>
  <i type="int" name="NSW">     0</i>
  <i type="int" name="ISIF">     2</i>
  <i name="ENCUT">    500.00000000</i>
  <i name="POTIM">      0.30000000</i>
  <i type="string" name="LREAL">A</i>
  <i type="int" name="ISMEAR">     0</i>
  <i name="SIGMA">      0.01000000</i>
  <i type="int" name="NWRITE">     0</i>
  <i type="logical" name="LWAVE"> F  </i>
  <i type="logical" name="LCHARG"> F  </i>
  <v type="int" name="KPOINT_BSE">    -1     0     0     0</v>
  <i type="int" name="NELM">   200</i>
  <i type="string" name="GGA">PE</i>
 </incar>
 <structure name="primitive_cell" >
  <crystal>
   <varray name="basis" >
    <v>      29.08103821      -0.04475969       0.00000000 </v>
    <v>     -14.58010449      24.96365020       0.00000000 </v>
    <v>       0.00000000       0.00000000      20.00000000 </v>
   </varray>
   <i name="volume">  14506.32528660 </i>
   <varray name="rec_basis" >
    <v>       0.03441761       0.02010172       0.00000000 </v>
    <v>       0.00006171       0.04009429       0.00000000 </v>
    <v>       0.00000000       0.00000000       0.05000000 </v>
   </varray>
  </crystal>
  <varray name="positions" >
   <v>      -0.31083328       0.38693409      -0.48971821 </v>
   <v>      -0.28183966       0.36351563       0.49921089 </v>
   <v>      -0.36411184       0.35235589      -0.49229946 </v>
   <v>      -0.39518688       0.37423190      -0.48096845 </v>
   <v>      -0.22782808       0.39506162      -0.49828061 </v>
   <v>      -0.37552464       0.41480727      -0.47929848 </v>
   <v>      -0.38844200       0.29967369       0.49492370 </v>
   <v>      -0.30073270       0.31105659       0.48540256 </v>
   <v>      -0.21823404       0.46179893      -0.44664581 </v>
   <v>      -0.35410713       0.28174838       0.48390842 </v>
   <v>      -0.20106346       0.45288837      -0.49051322 </v>
   <v>      -0.20872367       0.47193074       0.46642858 </v>
   <v>      -0.20711347       0.37812469       0.48388267 </v>
   <v>      -0.45286657       0.34405650      -0.48535979 </v>
   <v>      -0.46546303       0.32090811       0.46772744 </v>
   <v>      -0.37732929       0.22854346       0.47012438 </v>
   <v>      -0.46907446       0.31406527      -0.44470380 </v>
   <v>      -0.14184456       0.47636817      -0.48166644 </v>
   <v>      -0.41701959       0.43942608      -0.41464972 </v>
   <v>      -0.41740213       0.20905484       0.46371222 </v>
   <v>      -0.14860750       0.41581988      -0.41231365 </v>
   <v>      -0.47641916       0.38005283      -0.48134484 </v>
   <v>      -0.31242246       0.21916085       0.48772451 </v>
   <v>      -0.45303324       0.42757690      -0.44381042 </v>
   <v>      -0.12131569       0.45218476      -0.43971091 </v>
   <v>      -0.34852733       0.20082212       0.45637508 </v>
   <v>      -0.11984116      -0.45679149       0.45101333 </v>
   <v>      -0.10600463      -0.47702669       0.48436884 </v>
   <v>      -0.33461830       0.20637315       0.40402389 </v>
   <v>       0.47653695       0.36587716       0.48419857 </v>
   <v>      -0.41454767       0.15296114      -0.43617495 </v>
   <v>       0.45652266       0.32933851       0.45441696 </v>
   <v>      -0.47487492       0.46075476      -0.44317446 </v>
   <v>      -0.06659479       0.47343151      -0.43349825 </v>
   <v>      -0.38300003       0.14171074       0.47129946 </v>
   <v>      -0.05119175      -0.45536403       0.49215323 </v>
   <v>      -0.45513589       0.49836516      -0.41538413 </v>
   <v>      -0.41504227       0.12371887      -0.47112342 </v>
   <v>      -0.05131873       0.45337303      -0.40205666 </v>
   <v>       0.45407287       0.39853644       0.48687002 </v>
   <v>      -0.02998395      -0.47966229      -0.46729416 </v>
   <v>       0.47805093       0.44718032      -0.47777920 </v>
   <v>      -0.38442347       0.10361168       0.42741250 </v>
   <v>      -0.03553979      -0.39206181       0.40975949 </v>
   <v>      -0.01575830      -0.40526787       0.45562597 </v>
   <v>      -0.36090680       0.11538553       0.38160006 </v>
   <v>      -0.44813582       0.06926381      -0.45874846 </v>
   <v>      -0.49889747      -0.48446600       0.42317799 </v>
   <v>       0.40313572       0.37971573       0.45114109 </v>
   <v>      -0.47362434       0.05602604      -0.41458912 </v>
   <v>       0.38947196       0.34311100       0.40967563 </v>
   <v>       0.00491610      -0.41226680      -0.36372211 </v>
   <v>       0.46111484       0.48780618      -0.48240442 </v>
   <v>       0.02737680      -0.46362120      -0.46563248 </v>
   <v>       0.01872434       0.49390602       0.44274928 </v>
   <v>      -0.41680684       0.04903572       0.44125817 </v>
   <v>       0.03162122      -0.37913393       0.47323758 </v>
   <v>       0.47853947      -0.47802574       0.46194230 </v>
   <v>       0.41288371       0.42056640      -0.37338739 </v>
   <v>      -0.44974371       0.03031922       0.49787709 </v>
   <v>       0.04600505      -0.48294245       0.48303409 </v>
   <v>       0.37674188       0.40126793       0.46519550 </v>
   <v>       0.04764539      -0.41186699      -0.35851866 </v>
   <v>       0.06344593      -0.43457796      -0.41420996 </v>
   <v>       0.43271674       0.49774155      -0.43322124 </v>
   <v>       0.41206355       0.46308099      -0.37336435 </v>
   <v>      -0.41564327       0.01101114       0.39302649 </v>
   <v>      -0.40223937       0.02674766       0.33469322 </v>
   <v>       0.46688327      -0.43710379       0.45495612 </v>
   <v>       0.45706599      -0.01824449       0.43853886 </v>
   <v>      -0.40153769      -0.00085803      -0.41546496 </v>
   <v>      -0.49124493      -0.02699574      -0.49238579 </v>
   <v>       0.07823201      -0.39345786      -0.30995212 </v>
   <v>       0.09826689      -0.47258053       0.48222410 </v>
   <v>       0.48011017      -0.41197224       0.41026667 </v>
   <v>       0.39490605       0.47840050      -0.32673045 </v>
   <v>       0.42161158      -0.46082758      -0.43918510 </v>
   <v>       0.46100633      -0.04583677       0.47199686 </v>
   <v>       0.11554162      -0.42488561      -0.41388827 </v>
   <v>       0.11170343      -0.48740887       0.44082183 </v>
   <v>       0.43834858      -0.42782447      -0.49567269 </v>
   <v>      -0.42772867      -0.03423146       0.41376074 </v>
   <v>      -0.43834676      -0.04815551      -0.41175522 </v>
   <v>       0.13376908      -0.44351663      -0.46616170 </v>
   <v>      -0.48771638      -0.06372090      -0.44985278 </v>
   <v>       0.39932372      -0.45520267      -0.39937327 </v>
   <v>       0.14140171      -0.40237889      -0.37223827 </v>
   <v>       0.41966057      -0.09877968       0.47722256 </v>
   <v>      -0.43649099      -0.08332100      -0.37837906 </v>
   <v>       0.42641937      -0.38302371       0.49653192 </v>
   <v>       0.45212735      -0.34922281      -0.47033366 </v>
   <v>       0.38358666      -0.11229591       0.44751146 </v>
   <v>       0.43604576      -0.36705546       0.44505727 </v>
   <v>       0.47077544      -0.11661829      -0.44351046 </v>
   <v>       0.19009959      -0.43295898      -0.46698388 </v>
   <v>       0.42394501      -0.13503280      -0.48049154 </v>
   <v>       0.19730925      -0.44894335       0.48668145 </v>
   <v>       0.19621295      -0.45452866      -0.42556378 </v>
   <v>       0.21558132      -0.34915070      -0.46319594 </v>
   <v>       0.34327554      -0.43989636      -0.49457265 </v>
   <v>       0.47620043      -0.14300936      -0.40966038 </v>
   <v>       0.37141203      -0.40098261      -0.48662145 </v>
   <v>       0.22826039      -0.37595412      -0.46090482 </v>
   <v>       0.37877602      -0.19222821      -0.47560831 </v>
   <v>       0.35494747      -0.19767348      -0.43024022 </v>
   <v>       0.35123271      -0.20131473       0.48197341 </v>
   <v>       0.35235236      -0.36682914      -0.47974805 </v>
   <v>       0.28166362      -0.35554751      -0.46671618 </v>
   <v>       0.38747425      -0.31401466      -0.48036253 </v>
   <v>       0.43598862      -0.21732988      -0.48859654 </v>
   <v>       0.39824246      -0.22960692      -0.47341606 </v>
   <v>       0.29881399      -0.39051815      -0.47318967 </v>
   <v>       0.31225862      -0.30141068      -0.46607502 </v>
   <v>       0.36445523      -0.28363998      -0.47300658 </v>
  </varray>
 </structure>
 <varray name="primitive_index" >
  <v type="int" >        1 </v>
  <v type="int" >       20 </v>
  <v type="int" >       19 </v>
  <v type="int" >        6 </v>
  <v type="int" >        4 </v>
  <v type="int" >       69 </v>
  <v type="int" >        3 </v>
  <v type="int" >        2 </v>
  <v type="int" >       82 </v>
  <v type="int" >       21 </v>
  <v type="int" >       60 </v>
  <v type="int" >       98 </v>
  <v type="int" >       67 </v>
  <v type="int" >       54 </v>
  <v type="int" >       94 </v>
  <v type="int" >        5 </v>
  <v type="int" >       76 </v>
  <v type="int" >       59 </v>
  <v type="int" >       74 </v>
  <v type="int" >       68 </v>
  <v type="int" >       80 </v>
  <v type="int" >       53 </v>
  <v type="int" >       88 </v>
  <v type="int" >       30 </v>
  <v type="int" >       38 </v>
  <v type="int" >       66 </v>
  <v type="int" >       95 </v>
  <v type="int" >       58 </v>
  <v type="int" >      102 </v>
  <v type="int" >       52 </v>
  <v type="int" >       86 </v>
  <v type="int" >       91 </v>
  <v type="int" >       31 </v>
  <v type="int" >       39 </v>
  <v type="int" >       65 </v>
  <v type="int" >       57 </v>
  <v type="int" >       75 </v>
  <v type="int" >       46 </v>
  <v type="int" >       81 </v>
  <v type="int" >       51 </v>
  <v type="int" >       37 </v>
  <v type="int" >       29 </v>
  <v type="int" >       64 </v>
  <v type="int" >      112 </v>
  <v type="int" >       17 </v>
  <v type="int" >       99 </v>
  <v type="int" >       47 </v>
  <v type="int" >       93 </v>
  <v type="int" >       16 </v>
  <v type="int" >       87 </v>
  <v type="int" >      110 </v>
  <v type="int" >      105 </v>
  <v type="int" >       26 </v>
  <v type="int" >       34 </v>
  <v type="int" >       97 </v>
  <v type="int" >       63 </v>
  <v type="int" >      111 </v>
  <v type="int" >       50 </v>
  <v type="int" >      103 </v>
  <v type="int" >       45 </v>
  <v type="int" >       56 </v>
  <v type="int" >      109 </v>
  <v type="int" >       14 </v>
  <v type="int" >       35 </v>
  <v type="int" >       27 </v>
  <v type="int" >       13 </v>
  <v type="int" >       18 </v>
  <v type="int" >      113 </v>
  <v type="int" >       49 </v>
  <v type="int" >      101 </v>
  <v type="int" >      107 </v>
  <v type="int" >       42 </v>
  <v type="int" >      106 </v>
  <v type="int" >       55 </v>
  <v type="int" >       92 </v>
  <v type="int" >      104 </v>
  <v type="int" >       28 </v>
  <v type="int" >       62 </v>
  <v type="int" >       36 </v>
  <v type="int" >       96 </v>
  <v type="int" >       25 </v>
  <v type="int" >      114 </v>
  <v type="int" >       15 </v>
  <v type="int" >       33 </v>
  <v type="int" >       43 </v>
  <v type="int" >       73 </v>
  <v type="int" >       79 </v>
  <v type="int" >       61 </v>
  <v type="int" >      108 </v>
  <v type="int" >       32 </v>
  <v type="int" >       77 </v>
  <v type="int" >      100 </v>
  <v type="int" >       78 </v>
  <v type="int" >       44 </v>
  <v type="int" >       40 </v>
  <v type="int" >       41 </v>
  <v type="int" >       84 </v>
  <v type="int" >       83 </v>
  <v type="int" >       70 </v>
  <v type="int" >       72 </v>
  <v type="int" >       85 </v>
  <v type="int" >       12 </v>
  <v type="int" >       10 </v>
  <v type="int" >       48 </v>
  <v type="int" >       89 </v>
  <v type="int" >       90 </v>
  <v type="int" >       22 </v>
  <v type="int" >       23 </v>
  <v type="int" >        9 </v>
  <v type="int" >       71 </v>
  <v type="int" >       11 </v>
  <v type="int" >        7 </v>
  <v type="int" >        8 </v>
  <v type="int" >       24 </v>
 </varray>
 <kpoints>
  <generation param="listgenerated">
   <i name="divisions" type="int">      20 </i>
   <v>       0.00000000       0.00000000       0.00000000 </v>
   <v>       0.50000000      -0.50000000       0.00000000 </v>
   <v>       0.66993560      -0.33408282       0.00000000 </v>
   <v>       0.50000000       0.00000000       0.00000000 </v>
   <v>       0.33006440       0.33408282       0.00000000 </v>
   <v>       0.00000000       0.50000000       0.00000000 </v>
   <v>       0.00000000       0.00000000       0.00000000 </v>
  </generation>
  <varray name="kpointlist" >
   <v>       0.00000000       0.00000000       0.00000000 </v>
   <v>       0.02631579      -0.02631579       0.00000000 </v>
   <v>       0.05263158      -0.05263158       0.00000000 </v>
   <v>       0.07894737      -0.07894737       0.00000000 </v>
   <v>       0.10526316      -0.10526316       0.00000000 </v>
   <v>       0.13157895      -0.13157895       0.00000000 </v>
   <v>       0.15789474      -0.15789474       0.00000000 </v>
   <v>       0.18421053      -0.18421053       0.00000000 </v>
   <v>       0.21052632      -0.21052632       0.00000000 </v>
   <v>       0.23684211      -0.23684211       0.00000000 </v>
   <v>       0.26315789      -0.26315789       0.00000000 </v>
   <v>       0.28947368      -0.28947368       0.00000000 </v>
   <v>       0.31578947      -0.31578947       0.00000000 </v>
   <v>       0.34210526      -0.34210526       0.00000000 </v>
   <v>       0.36842105      -0.36842105       0.00000000 </v>
   <v>       0.39473684      -0.39473684       0.00000000 </v>
   <v>       0.42105263      -0.42105263       0.00000000 </v>
   <v>       0.44736842      -0.44736842       0.00000000 </v>
   <v>       0.47368421      -0.47368421       0.00000000 </v>
   <v>       0.50000000      -0.50000000       0.00000000 </v>
   <v>       0.50000000      -0.50000000       0.00000000 </v>
   <v>       0.50894398      -0.49126752       0.00000000 </v>
   <v>       0.51788796      -0.48253503       0.00000000 </v>
   <v>       0.52683194      -0.47380255       0.00000000 </v>
   <v>       0.53577592      -0.46507007       0.00000000 </v>
   <v>       0.54471990      -0.45633758       0.00000000 </v>
   <v>       0.55366387      -0.44760510       0.00000000 </v>
   <v>       0.56260785      -0.43887262       0.00000000 </v>
   <v>       0.57155183      -0.43014013       0.00000000 </v>
   <v>       0.58049581      -0.42140765       0.00000000 </v>
   <v>       0.58943979      -0.41267517       0.00000000 </v>
   <v>       0.59838377      -0.40394269       0.00000000 </v>
   <v>       0.60732775      -0.39521020       0.00000000 </v>
   <v>       0.61627173      -0.38647772       0.00000000 </v>
   <v>       0.62521571      -0.37774524       0.00000000 </v>
   <v>       0.63415969      -0.36901275       0.00000000 </v>
   <v>       0.64310367      -0.36028027       0.00000000 </v>
   <v>       0.65204765      -0.35154779       0.00000000 </v>
   <v>       0.66099162      -0.34281530       0.00000000 </v>
   <v>       0.66993560      -0.33408282       0.00000000 </v>
   <v>       0.66993560      -0.33408282       0.00000000 </v>
   <v>       0.66099162      -0.31649951       0.00000000 </v>
   <v>       0.65204765      -0.29891621       0.00000000 </v>
   <v>       0.64310367      -0.28133290       0.00000000 </v>
   <v>       0.63415969      -0.26374959       0.00000000 </v>
   <v>       0.62521571      -0.24616629       0.00000000 </v>
   <v>       0.61627173      -0.22858298       0.00000000 </v>
   <v>       0.60732775      -0.21099968       0.00000000 </v>
   <v>       0.59838377      -0.19341637       0.00000000 </v>
   <v>       0.58943979      -0.17583306       0.00000000 </v>
   <v>       0.58049581      -0.15824976       0.00000000 </v>
   <v>       0.57155183      -0.14066645       0.00000000 </v>
   <v>       0.56260785      -0.12308314       0.00000000 </v>
   <v>       0.55366387      -0.10549984       0.00000000 </v>
   <v>       0.54471990      -0.08791653       0.00000000 </v>
   <v>       0.53577592      -0.07033323       0.00000000 </v>
   <v>       0.52683194      -0.05274992       0.00000000 </v>
   <v>       0.51788796      -0.03516661       0.00000000 </v>
   <v>       0.50894398      -0.01758331       0.00000000 </v>
   <v>       0.50000000       0.00000000       0.00000000 </v>
   <v>       0.50000000       0.00000000       0.00000000 </v>
   <v>       0.49105602       0.01758331       0.00000000 </v>
   <v>       0.48211204       0.03516661       0.00000000 </v>
   <v>       0.47316806       0.05274992       0.00000000 </v>
   <v>       0.46422408       0.07033323       0.00000000 </v>
   <v>       0.45528010       0.08791653       0.00000000 </v>
   <v>       0.44633613       0.10549984       0.00000000 </v>
   <v>       0.43739215       0.12308314       0.00000000 </v>
   <v>       0.42844817       0.14066645       0.00000000 </v>
   <v>       0.41950419       0.15824976       0.00000000 </v>
   <v>       0.41056021       0.17583306       0.00000000 </v>
   <v>       0.40161623       0.19341637       0.00000000 </v>
   <v>       0.39267225       0.21099968       0.00000000 </v>
   <v>       0.38372827       0.22858298       0.00000000 </v>
   <v>       0.37478429       0.24616629       0.00000000 </v>
   <v>       0.36584031       0.26374959       0.00000000 </v>
   <v>       0.35689633       0.28133290       0.00000000 </v>
   <v>       0.34795235       0.29891621       0.00000000 </v>
   <v>       0.33900838       0.31649951       0.00000000 </v>
   <v>       0.33006440       0.33408282       0.00000000 </v>
   <v>       0.33006440       0.33408282       0.00000000 </v>
   <v>       0.31269259       0.34281530       0.00000000 </v>
   <v>       0.29532078       0.35154779       0.00000000 </v>
   <v>       0.27794897       0.36028027       0.00000000 </v>
   <v>       0.26057716       0.36901275       0.00000000 </v>
   <v>       0.24320534       0.37774524       0.00000000 </v>
   <v>       0.22583353       0.38647772       0.00000000 </v>
   <v>       0.20846172       0.39521020       0.00000000 </v>
   <v>       0.19108991       0.40394269       0.00000000 </v>
   <v>       0.17371810       0.41267517       0.00000000 </v>
   <v>       0.15634629       0.42140765       0.00000000 </v>
   <v>       0.13897448       0.43014013       0.00000000 </v>
   <v>       0.12160267       0.43887262       0.00000000 </v>
   <v>       0.10423086       0.44760510       0.00000000 </v>
   <v>       0.08685905       0.45633758       0.00000000 </v>
   <v>       0.06948724       0.46507007       0.00000000 </v>
   <v>       0.05211543       0.47380255       0.00000000 </v>
   <v>       0.03474362       0.48253503       0.00000000 </v>
   <v>       0.01737181       0.49126752       0.00000000 </v>
   <v>       0.00000000       0.50000000       0.00000000 </v>
   <v>       0.00000000       0.50000000       0.00000000 </v>
   <v>       0.00000000       0.47368421       0.00000000 </v>
   <v>       0.00000000       0.44736842       0.00000000 </v>
   <v>       0.00000000       0.42105263       0.00000000 </v>
   <v>       0.00000000       0.39473684       0.00000000 </v>
   <v>       0.00000000       0.36842105       0.00000000 </v>
   <v>       0.00000000       0.34210526       0.00000000 </v>
   <v>       0.00000000       0.31578947       0.00000000 </v>
   <v>       0.00000000       0.28947368       0.00000000 </v>
   <v>       0.00000000       0.26315789       0.00000000 </v>
   <v>       0.00000000       0.23684211       0.00000000 </v>
   <v>       0.00000000       0.21052632       0.00000000 </v>
   <v>       0.00000000       0.18421053       0.00000000 </v>
   <v>       0.00000000       0.15789474       0.00000000 </v>
   <v>       0.00000000       0.13157895       0.00000000 </v>
   <v>       0.00000000       0.10526316       0.00000000 </v>
   <v>       0.00000000       0.07894737       0.00000000 </v>
   <v>       0.00000000       0.05263158       0.00000000 </v>
   <v>       0.00000000       0.02631579       0.00000000 </v>
   <v>       0.00000000       0.00000000       0.00000000 </v>
  </varray>
  <varray name="weights" >
   <v>       0.00833333 </v>
   <v>       0.00833333 </v>
   <v>       0.00833333 </v>
   <v>       0.00833333 </v>
   <v>       0.00833333 </v>
   <v>       0.00833333 </v>
   <v>       0.00833333 </v>
   <v>       0.00833333 </v>
   <v>       0.00833333 </v>
   <v>       0.00833333 </v>
   <v>       0.00833333 </v>
   <v>       0.00833333 </v>
   <v>       0.00833333 </v>
   <v>       0.00833333 </v>
   <v>       0.00833333 </v>
   <v>       0.00833333 </v>
   <v>       0.00833333 </v>
   <v>       0.00833333 </v>
   <v>       0.00833333 </v>
   <v>       0.00833333 </v>
   <v>       0.00833333 </v>
   <v>       0.00833333 </v>
   <v>       0.00833333 </v>
   <v>       0.00833333 </v>
   <v>       0.00833333 </v>
   <v>       0.00833333 </v>
   <v>       0.00833333 </v>
   <v>       0.00833333 </v>
   <v>       0.00833333 </v>
   <v>       0.00833333 </v>
   <v>       0.00833333 </v>
   <v>       0.00833333 </v>
   <v>       0.00833333 </v>
   <v>       0.00833333 </v>
   <v>       0.00833333 </v>
   <v>       0.00833333 </v>
   <v>       0.00833333 </v>
   <v>       0.00833333 </v>
   <v>       0.00833333 </v>
   <v>       0.00833333 </v>
   <v>       0.00833333 </v>
   <v>       0.00833333 </v>
   <v>       0.00833333 </v>
   <v>       0.00833333 </v>
   <v>       0.00833333 </v>
   <v>       0.00833333 </v>
   <v>       0.00833333 </v>
   <v>       0.00833333 </v>
   <v>       0.00833333 </v>
   <v>       0.00833333 </v>
   <v>       0.00833333 </v>
   <v>       0.00833333 </v>
   <v>       0.00833333 </v>
   <v>       0.00833333 </v>
   <v>       0.00833333 </v>
   <v>       0.00833333 </v>
   <v>       0.00833333 </v>
   <v>       0.00833333 </v>
   <v>       0.00833333 </v>
   <v>       0.00833333 </v>
   <v>       0.00833333 </v>
   <v>       0.00833333 </v>
   <v>       0.00833333 </v>
   <v>       0.00833333 </v>
   <v>       0.00833333 </v>
   <v>       0.00833333 </v>
   <v>       0.00833333 </v>
   <v>       0.00833333 </v>
   <v>       0.00833333 </v>
   <v>       0.00833333 </v>
   <v>       0.00833333 </v>
   <v>       0.00833333 </v>
   <v>       0.00833333 </v>
   <v>       0.00833333 </v>
   <v>       0.00833333 </v>
   <v>       0.00833333 </v>
   <v>       0.00833333 </v>
   <v>       0.00833333 </v>
   <v>       0.00833333 </v>
   <v>       0.00833333 </v>
   <v>       0.00833333 </v>
   <v>       0.00833333 </v>
   <v>       0.00833333 </v>
   <v>       0.00833333 </v>
   <v>       0.00833333 </v>
   <v>       0.00833333 </v>
   <v>       0.00833333 </v>
   <v>       0.00833333 </v>
   <v>       0.00833333 </v>
   <v>       0.00833333 </v>
   <v>       0.00833333 </v>
   <v>       0.00833333 </v>
   <v>       0.00833333 </v>
   <v>       0.00833333 </v>
   <v>       0.00833333 </v>
   <v>       0.00833333 </v>
   <v>       0.00833333 </v>
   <v>       0.00833333 </v>
   <v>       0.00833333 </v>
   <v>       0.00833333 </v>
   <v>       0.00833333 </v>
   <v>       0.00833333 </v>
   <v>       0.00833333 </v>
   <v>       0.00833333 </v>
   <v>       0.00833333 </v>
   <v>       0.00833333 </v>
   <v>       0.00833333 </v>
   <v>       0.00833333 </v>
   <v>       0.00833333 </v>
   <v>       0.00833333 </v>
   <v>       0.00833333 </v>
   <v>       0.00833333 </v>
   <v>       0.00833333 </v>
   <v>       0.00833333 </v>
   <v>       0.00833333 </v>
   <v>       0.00833333 </v>
   <v>       0.00833333 </v>
   <v>       0.00833333 </v>
   <v>       0.00833333 </v>
   <v>       0.00833333 </v>
  </varray>
 </kpoints>
 <parameters>
  <separator name="general" >
   <i type="string" name="SYSTEM">Simulation for cell shape cell volume r</i>
   <i type="logical" name="LCOMPAT"> F  </i>
  </separator>
  <separator name="electronic" >
   <i type="string" name="PREC">high</i>
   <i name="ENMAX">    500.00000000</i>
   <i name="ENAUG">    644.87300000</i>
   <i name="EDIFF">      0.00001000</i>
   <i type="int" name="IALGO">    38</i>
   <i type="int" name="IWAVPR">    10</i>
   <i type="int" name="NBANDS">   256</i>
   <i name="NELECT">    390.00000000</i>
   <i type="int" name="TURBO">     0</i>
   <i type="int" name="IRESTART">     0</i>
   <i type="int" name="NREBOOT">     0</i>
   <i type="int" name="NMIN">     0</i>
   <i name="EREF">      0.00000000</i>
   <separator name="electronic smearing" >
    <i type="int" name="ISMEAR">     0</i>
    <i name="SIGMA">      0.01000000</i>
    <i name="KSPACING">      0.50000000</i>
    <i type="logical" name="KGAMMA"> T  </i>
   </separator>
   <separator name="electronic projectors" >
    <i type="logical" name="LREAL"> T  </i>
    <v name="ROPT">     -0.00040000     -0.00040000     -0.00040000     -0.00040000</v>
    <i type="int" name="LMAXPAW">  -100</i>
    <i type="int" name="LMAXMIX">     2</i>
    <i type="logical" name="NLSPLINE"> F  </i>
   </separator>
   <separator name="electronic startup" >
    <i type="int" name="ISTART">     1</i>
    <i type="int" name="ICHARG">    11</i>
    <i type="int" name="INIWAV">     1</i>
   </separator>
   <separator name="electronic spin" >
    <i type="int" name="ISPIN">     1</i>
    <i type="logical" name="LNONCOLLINEAR"> F  </i>
    <v name="MAGMOM">      1.00000000      1.00000000      1.00000000      1.00000000      1.00000000      1.00000000      1.00000000      1.00000000      1.00000000      1.00000000      1.00000000      1.00000000      1.00000000      1.00000000      1.00000000      1.00000000      1.00000000      1.00000000      1.00000000      1.00000000
      1.00000000      1.00000000      1.00000000      1.00000000      1.00000000      1.00000000      1.00000000      1.00000000      1.00000000      1.00000000      1.00000000      1.00000000      1.00000000      1.00000000      1.00000000      1.00000000      1.00000000      1.00000000      1.00000000      1.00000000
      1.00000000      1.00000000      1.00000000      1.00000000      1.00000000      1.00000000      1.00000000      1.00000000      1.00000000      1.00000000      1.00000000      1.00000000      1.00000000      1.00000000      1.00000000      1.00000000      1.00000000      1.00000000      1.00000000      1.00000000
      1.00000000      1.00000000      1.00000000      1.00000000      1.00000000      1.00000000      1.00000000      1.00000000      1.00000000      1.00000000      1.00000000      1.00000000      1.00000000      1.00000000      1.00000000      1.00000000      1.00000000      1.00000000      1.00000000      1.00000000
      1.00000000      1.00000000      1.00000000      1.00000000      1.00000000      1.00000000      1.00000000      1.00000000      1.00000000      1.00000000      1.00000000      1.00000000      1.00000000      1.00000000      1.00000000      1.00000000      1.00000000      1.00000000      1.00000000      1.00000000
      1.00000000      1.00000000      1.00000000      1.00000000      1.00000000      1.00000000      1.00000000      1.00000000      1.00000000      1.00000000      1.00000000      1.00000000      1.00000000      1.00000000</v>
    <i name="NUPDOWN">     -1.00000000</i>
    <i type="logical" name="LSORBIT"> F  </i>
    <v name="SAXIS">      0.00000000      0.00000000      1.00000000</v>
    <i type="logical" name="LSPIRAL"> F  </i>
    <v name="QSPIRAL">      0.00000000      0.00000000      0.00000000</v>
    <i type="logical" name="LZEROZ"> F  </i>
   </separator>
   <separator name="electronic exchange-correlation" >
    <i type="logical" name="LASPH"> F  </i>
    <i type="logical" name="LMETAGGA"> F  </i>
   </separator>
   <separator name="electronic convergence" >
    <i type="int" name="NELM">   200</i>
    <i type="int" name="NELMDL">     0</i>
    <i type="int" name="NELMIN">     2</i>
    <i name="ENINI">    500.00000000</i>
    <separator name="electronic convergence detail" >
     <i type="logical" name="LDIAG"> T  </i>
     <i type="logical" name="LSUBROT"> F  </i>
     <i name="WEIMIN">      0.00000000</i>
     <i name="EBREAK">      0.00000001</i>
     <i name="DEPER">      0.30000000</i>
     <i type="int" name="NRMM">     4</i>
     <i name="TIME">      0.40000000</i>
    </separator>
   </separator>
   <separator name="electronic mixer" >
    <i name="AMIX">      0.40000000</i>
    <i name="BMIX">      1.00000000</i>
    <i name="AMIN">      0.10000000</i>
    <i name="AMIX_MAG">      1.60000000</i>
    <i name="BMIX_MAG">      1.00000000</i>
    <separator name="electronic mixer details" >
     <i type="int" name="IMIX">     4</i>
     <i type="logical" name="MIXFIRST"> F  </i>
     <i type="int" name="MAXMIX">   -45</i>
     <i name="WC">    100.00000000</i>
     <i type="int" name="INIMIX">     1</i>
     <i type="int" name="MIXPRE">     1</i>
     <i type="int" name="MREMOVE">     5</i>
    </separator>
   </separator>
   <separator name="electronic dipolcorrection" >
    <i type="logical" name="LDIPOL"> F  </i>
    <i type="logical" name="LMONO"> F  </i>
    <i type="int" name="IDIPOL">     0</i>
    <i name="EPSILON">      1.00000000</i>
    <v name="DIPOL">   -100.00000000   -100.00000000   -100.00000000</v>
    <i name="EFIELD">      0.00000000</i>
   </separator>
  </separator>
  <separator name="grids" >
   <i type="int" name="NGX">   216</i>
   <i type="int" name="NGY">   216</i>
   <i type="int" name="NGZ">   150</i>
   <i type="int" name="NGXF">   324</i>
   <i type="int" name="NGYF">   320</i>
   <i type="int" name="NGZF">   224</i>
   <i type="logical" name="ADDGRID"> F  </i>
  </separator>
  <separator name="ionic" >
   <i type="int" name="NSW">     0</i>
   <i type="int" name="IBRION">    -1</i>
   <i type="int" name="MDALGO">     0</i>
   <i type="int" name="ISIF">     2</i>
   <i name="PSTRESS">      0.00000000</i>
   <i name="EDIFFG">     -0.01000000</i>
   <i type="int" name="NFREE">     0</i>
   <i name="POTIM">      0.30000000</i>
   <i name="SMASS">     -3.00000000</i>
   <i name="SCALEE">      1.00000000</i>
  </separator>
  <separator name="ionic md" >
   <i name="TEBEG">      0.00010000</i>
   <i name="TEEND">      0.00010000</i>
   <i type="int" name="NBLOCK">     1</i>
   <i type="int" name="KBLOCK">     1</i>
   <i type="int" name="NPACO">   256</i>
   <i name="APACO">     16.00000000</i>
  </separator>
  <separator name="symmetry" >
   <i type="int" name="ISYM">     2</i>
   <i name="SYMPREC">      0.00001000</i>
  </separator>
  <separator name="dos" >
   <i type="int" name="LORBIT">     0</i>
   <v name="RWIGS">     -1.00000000     -1.00000000     -1.00000000     -1.00000000</v>
   <i type="int" name="NEDOS">   301</i>
   <i name="EMIN">     10.00000000</i>
   <i name="EMAX">    -10.00000000</i>
   <i name="EFERMI">      0.00000000</i>
  </separator>
  <separator name="writing" >
   <i type="int" name="NWRITE">     0</i>
   <i type="logical" name="LWAVE"> F  </i>
   <i type="logical" name="LDOWNSAMPLE"> F  </i>
   <i type="logical" name="LCHARG"> F  </i>
   <i type="logical" name="LPARD"> F  </i>
   <i type="logical" name="LVTOT"> F  </i>
   <i type="logical" name="LVHAR"> F  </i>
   <i type="logical" name="LELF"> F  </i>
   <i type="logical" name="LOPTICS"> F  </i>
   <v name="STM">      0.00000000      0.00000000      0.00000000      0.00000000      0.00000000      0.00000000      0.00000000</v>
  </separator>
  <separator name="performance" >
   <i type="int" name="NPAR">    16</i>
   <i type="int" name="NSIM">     4</i>
   <i type="int" name="NBLK">    -1</i>
   <i type="logical" name="LPLANE"> T  </i>
   <i type="logical" name="LSCALAPACK"> T  </i>
   <i type="logical" name="LSCAAWARE"> F  </i>
   <i type="logical" name="LSCALU"> F  </i>
   <i type="logical" name="LASYNC"> F  </i>
   <i type="logical" name="LORBITALREAL"> F  </i>
  </separator>
  <separator name="miscellaneous" >
   <i type="int" name="IDIOT">     3</i>
   <i type="int" name="ISPECIAL">     0</i>
   <i type="logical" name="LMUSIC"> F  </i>
   <v name="POMASS">     14.00100000     12.01100000      1.00000000     16.00000000</v>
   <v name="DARWINR">      0.00000000      0.00000000      0.00000000      0.00000000</v>
   <v name="DARWINV">      1.00000000      1.00000000      1.00000000      1.00000000</v>
   <i type="logical" name="LCORR"> T  </i>
  </separator>
  <i type="logical" name="GGA_COMPAT"> T  </i>
  <i type="logical" name="LBERRY"> F  </i>
  <i type="int" name="ICORELEVEL">     0</i>
  <i type="logical" name="LDAU"> F  </i>
  <i type="int" name="I_CONSTRAINED_M">     0</i>
  <separator name="electronic exchange-correlation" >
   <i type="string" name="GGA">PE</i>
   <i type="int" name="VOSKOWN">     0</i>
   <i type="logical" name="LHFCALC"> F  </i>
   <i type="string" name="PRECFOCK"></i>
   <i type="logical" name="LSYMGRAD"> F  </i>
   <i type="logical" name="LHFONE"> F  </i>
   <i type="logical" name="LRHFCALC"> F  </i>
   <i type="logical" name="LTHOMAS"> F  </i>
   <i type="logical" name="LMODELHF"> F  </i>
   <i name="ENCUT4O">     -1.00000000</i>
   <i type="int" name="EXXOEP">     0</i>
   <i type="int" name="FOURORBIT">     0</i>
   <i name="AEXX">      0.00000000</i>
   <i name="HFALPHA">      0.00000000</i>
   <i name="MCALPHA">      0.00000000</i>
   <i name="ALDAX">      1.00000000</i>
   <i name="AGGAX">      1.00000000</i>
   <i name="ALDAC">      1.00000000</i>
   <i name="AGGAC">      1.00000000</i>
   <i type="int" name="NKREDX">     1</i>
   <i type="int" name="NKREDY">     1</i>
   <i type="int" name="NKREDZ">     1</i>
   <i type="logical" name="SHIFTRED"> F  </i>
   <i type="logical" name="ODDONLY"> F  </i>
   <i type="logical" name="EVENONLY"> F  </i>
   <i type="int" name="LMAXFOCK">     0</i>
   <i type="int" name="NMAXFOCKAE">     0</i>
   <i type="logical" name="LFOCKAEDFT"> F  </i>
   <i name="HFSCREEN">      0.00000000</i>
   <i name="HFSCREENC">      0.00000000</i>
   <i type="int" name="NBANDSGWLOW">     0</i>
  </separator>
  <separator name="vdW DFT" >
   <i type="logical" name="LUSE_VDW"> F  </i>
   <i name="Zab_VDW">     -0.84910000</i>
   <i name="PARAM1">      0.12340000</i>
   <i name="PARAM2">      1.00000000</i>
   <i name="PARAM3">      0.00000000</i>
  </separator>
  <separator name="model GW" >
   <i type="int" name="MODEL_GW">     0</i>
   <i name="MODEL_EPS0">     76.34908046</i>
   <i name="MODEL_ALPHA">      1.00000000</i>
  </separator>
  <separator name="linear response parameters" >
   <i type="logical" name="LEPSILON"> F  </i>
   <i type="logical" name="LRPA"> F  </i>
   <i type="logical" name="LNABLA"> F  </i>
   <i type="logical" name="LVEL"> F  </i>
   <i type="int" name="KINTER">     0</i>
   <i name="CSHIFT">      0.10000000</i>
   <i name="OMEGAMAX">     -1.00000000</i>
   <i name="DEG_THRESHOLD">      0.00200000</i>
   <i name="RTIME">     -0.10000000</i>
   <i name="WPLASMAI">      0.00000000</i>
   <v name="DFIELD">      0.00000000      0.00000000      0.00000000</v>
   <v name="WPLASMA">      0.00000000      0.00000000      0.00000000      0.00000000      0.00000000      0.00000000      0.00000000      0.00000000      0.00000000</v>
  </separator>
  <separator name="orbital magnetization" >
   <i type="logical" name="NUCIND"> F  </i>
   <v name="MAGPOS">      0.00000000      0.00000000      0.00000000</v>
   <i type="logical" name="LNICSALL"> T  </i>
   <i type="logical" name="ORBITALMAG"> F  </i>
   <i type="logical" name="LMAGBLOCH"> F  </i>
   <i type="logical" name="LCHIMAG"> F  </i>
   <i type="logical" name="LGAUGE"> T  </i>
   <i type="int" name="MAGATOM">     0</i>
   <v name="MAGDIPOL">      0.00000000      0.00000000      0.00000000</v>
   <v name="AVECCONST">      0.00000000      0.00000000      0.00000000</v>
  </separator>
  <separator name="response functions" >
   <i type="logical" name="LADDER"> F  </i>
   <i type="logical" name="LRPAFORCE"> F  </i>
   <i type="logical" name="LFXC"> F  </i>
   <i type="logical" name="LHARTREE"> T  </i>
   <i type="int" name="IBSE">     0</i>
   <v type="int" name="KPOINT">    -1     0     0     0</v>
   <i type="logical" name="LTCTE"> F  </i>
   <i type="logical" name="LTETE"> F  </i>
   <i type="logical" name="LTRIPLET"> F  </i>
   <i type="logical" name="LFXCEPS"> F  </i>
   <i type="logical" name="LFXHEG"> F  </i>
   <i type="int" name="NATURALO">     2</i>
   <i type="logical" name="L2ORDER"> F  </i>
   <i type="logical" name="LMP2LT"> F  </i>
   <i type="logical" name="LUSEW"> F  </i>
   <i name="ENCUTGW">     -2.00000000</i>
   <i name="ENCUTGWSOFT">     -2.00000000</i>
   <i name="ENCUTLF">     -1.00000000</i>
   <i type="int" name="LMAXMP2">    -1</i>
   <i name="SCISSOR">      0.00000000</i>
   <i type="int" name="NOMEGA">     0</i>
   <i type="int" name="NOMEGAR">     0</i>
   <i type="int" name="NBANDSGW">    -1</i>
   <i type="int" name="NBANDSO">    -1</i>
   <i type="int" name="NBANDSV">    -1</i>
   <i type="int" name="NELM">   200</i>
   <i type="int" name="NELMHF">     1</i>
   <i type="int" name="DIM">     3</i>
   <i type="int" name="ANTIRES">     0</i>
   <i name="OMEGAMAX">    -30.00000000</i>
   <i name="OMEGAMIN">    -30.00000000</i>
   <i name="OMEGATL">   -200.00000000</i>
   <i type="int" name="OMEGAGRID">   140</i>
   <i name="CSHIFT">     -0.10000000</i>
   <i type="logical" name="SELFENERGY"> F  </i>
   <i type="logical" name="LSPECTRAL"> F  </i>
   <i type="logical" name="LSPECTRALGW"> F  </i>
   <i type="logical" name="LSINGLES"> F  </i>
   <i type="logical" name="LFERMIGW"> F  </i>
   <i type="logical" name="ODDONLYGW"> F  </i>
   <i type="logical" name="EVENONLYGW"> F  </i>
   <i type="int" name="NKREDLFX">     1</i>
   <i type="int" name="NKREDLFY">     1</i>
   <i type="int" name="NKREDLFZ">     1</i>
   <i type="int" name="MAXMEM">  2800</i>
   <i type="int" name="TELESCOPE">     0</i>
   <i type="int" name="TAUPAR">     1</i>
   <i type="int" name="OMEGAPAR">    -1</i>
   <i name="LAMBDA">      1.00000000</i>
  </separator>
  <separator name="External order field" >
   <i name="OFIELD_KAPPA">      0.00000000</i>
   <v name="OFIELD_K">      0.00000000      0.00000000      0.00000000</v>
   <i name="OFIELD_Q6_NEAR">      0.00000000</i>
   <i name="OFIELD_Q6_FAR">      0.00000000</i>
   <i name="OFIELD_A">      0.00000000</i>
  </separator>
  <separator name="solvation model" >
   <i type="logical" name="LSOL"> F  </i>
  </separator>
 </parameters>
 <atominfo>
  <atoms>     114 </atoms>
  <types>       4 </types>
  <array name="atoms" >
   <dimension dim="1">ion</dimension>
   <field type="string">element</field>
   <field type="int">atomtype</field>
   <set>
    <rc><c>N </c><c>   1</c></rc>
    <rc><c>N </c><c>   1</c></rc>
    <rc><c>N </c><c>   1</c></rc>
    <rc><c>N </c><c>   1</c></rc>
    <rc><c>N </c><c>   1</c></rc>
    <rc><c>N </c><c>   1</c></rc>
    <rc><c>N </c><c>   1</c></rc>
    <rc><c>N </c><c>   1</c></rc>
    <rc><c>N </c><c>   1</c></rc>
    <rc><c>N </c><c>   1</c></rc>
    <rc><c>N </c><c>   1</c></rc>
    <rc><c>N </c><c>   1</c></rc>
    <rc><c>N </c><c>   1</c></rc>
    <rc><c>N </c><c>   1</c></rc>
    <rc><c>N </c><c>   1</c></rc>
    <rc><c>N </c><c>   1</c></rc>
    <rc><c>N </c><c>   1</c></rc>
    <rc><c>N </c><c>   1</c></rc>
    <rc><c>C </c><c>   2</c></rc>
    <rc><c>C </c><c>   2</c></rc>
    <rc><c>C </c><c>   2</c></rc>
    <rc><c>C </c><c>   2</c></rc>
    <rc><c>C </c><c>   2</c></rc>
    <rc><c>C </c><c>   2</c></rc>
    <rc><c>C </c><c>   2</c></rc>
    <rc><c>C </c><c>   2</c></rc>
    <rc><c>C </c><c>   2</c></rc>
    <rc><c>C </c><c>   2</c></rc>
    <rc><c>C </c><c>   2</c></rc>
    <rc><c>C </c><c>   2</c></rc>
    <rc><c>C </c><c>   2</c></rc>
    <rc><c>C </c><c>   2</c></rc>
    <rc><c>C </c><c>   2</c></rc>
    <rc><c>C </c><c>   2</c></rc>
    <rc><c>C </c><c>   2</c></rc>
    <rc><c>C </c><c>   2</c></rc>
    <rc><c>C </c><c>   2</c></rc>
    <rc><c>C </c><c>   2</c></rc>
    <rc><c>C </c><c>   2</c></rc>
    <rc><c>C </c><c>   2</c></rc>
    <rc><c>C </c><c>   2</c></rc>
    <rc><c>C </c><c>   2</c></rc>
    <rc><c>C </c><c>   2</c></rc>
    <rc><c>C </c><c>   2</c></rc>
    <rc><c>C </c><c>   2</c></rc>
    <rc><c>C </c><c>   2</c></rc>
    <rc><c>C </c><c>   2</c></rc>
    <rc><c>C </c><c>   2</c></rc>
    <rc><c>C </c><c>   2</c></rc>
    <rc><c>C </c><c>   2</c></rc>
    <rc><c>C </c><c>   2</c></rc>
    <rc><c>C </c><c>   2</c></rc>
    <rc><c>C </c><c>   2</c></rc>
    <rc><c>C </c><c>   2</c></rc>
    <rc><c>C </c><c>   2</c></rc>
    <rc><c>C </c><c>   2</c></rc>
    <rc><c>C </c><c>   2</c></rc>
    <rc><c>C </c><c>   2</c></rc>
    <rc><c>C </c><c>   2</c></rc>
    <rc><c>C </c><c>   2</c></rc>
    <rc><c>C </c><c>   2</c></rc>
    <rc><c>C </c><c>   2</c></rc>
    <rc><c>C </c><c>   2</c></rc>
    <rc><c>C </c><c>   2</c></rc>
    <rc><c>C </c><c>   2</c></rc>
    <rc><c>C </c><c>   2</c></rc>
    <rc><c>H </c><c>   3</c></rc>
    <rc><c>H </c><c>   3</c></rc>
    <rc><c>H </c><c>   3</c></rc>
    <rc><c>H </c><c>   3</c></rc>
    <rc><c>H </c><c>   3</c></rc>
    <rc><c>H </c><c>   3</c></rc>
    <rc><c>H </c><c>   3</c></rc>
    <rc><c>H </c><c>   3</c></rc>
    <rc><c>H </c><c>   3</c></rc>
    <rc><c>H </c><c>   3</c></rc>
    <rc><c>H </c><c>   3</c></rc>
    <rc><c>H </c><c>   3</c></rc>
    <rc><c>H </c><c>   3</c></rc>
    <rc><c>H </c><c>   3</c></rc>
    <rc><c>H </c><c>   3</c></rc>
    <rc><c>H </c><c>   3</c></rc>
    <rc><c>H </c><c>   3</c></rc>
    <rc><c>H </c><c>   3</c></rc>
    <rc><c>H </c><c>   3</c></rc>
    <rc><c>H </c><c>   3</c></rc>
    <rc><c>H </c><c>   3</c></rc>
    <rc><c>H </c><c>   3</c></rc>
    <rc><c>H </c><c>   3</c></rc>
    <rc><c>H </c><c>   3</c></rc>
    <rc><c>H </c><c>   3</c></rc>
    <rc><c>H </c><c>   3</c></rc>
    <rc><c>H </c><c>   3</c></rc>
    <rc><c>H </c><c>   3</c></rc>
    <rc><c>H </c><c>   3</c></rc>
    <rc><c>H </c><c>   3</c></rc>
    <rc><c>H </c><c>   3</c></rc>
    <rc><c>H </c><c>   3</c></rc>
    <rc><c>H </c><c>   3</c></rc>
    <rc><c>H </c><c>   3</c></rc>
    <rc><c>H </c><c>   3</c></rc>
    <rc><c>H </c><c>   3</c></rc>
    <rc><c>O </c><c>   4</c></rc>
    <rc><c>O </c><c>   4</c></rc>
    <rc><c>O </c><c>   4</c></rc>
    <rc><c>O </c><c>   4</c></rc>
    <rc><c>O </c><c>   4</c></rc>
    <rc><c>O </c><c>   4</c></rc>
    <rc><c>O </c><c>   4</c></rc>
    <rc><c>O </c><c>   4</c></rc>
    <rc><c>O </c><c>   4</c></rc>
    <rc><c>O </c><c>   4</c></rc>
    <rc><c>O </c><c>   4</c></rc>
    <rc><c>O </c><c>   4</c></rc>
   </set>
  </array>
  <array name="atomtypes" >
   <dimension dim="1">type</dimension>
   <field type="int">atomspertype</field>
   <field type="string">element</field>
   <field>mass</field>
   <field>valence</field>
   <field type="string">pseudopotential</field>
   <set>
    <rc><c>  18</c><c>N </c><c>     14.00100000</c><c>      5.00000000</c><c>  PAW_PBE N 08Apr2002                   </c></rc>
    <rc><c>  48</c><c>C </c><c>     12.01100000</c><c>      4.00000000</c><c>  PAW_PBE C 08Apr2002                   </c></rc>
    <rc><c>  36</c><c>H </c><c>      1.00000000</c><c>      1.00000000</c><c>  PAW_PBE H 15Jun2001                   </c></rc>
    <rc><c>  12</c><c>O </c><c>     16.00000000</c><c>      6.00000000</c><c>  PAW_PBE O 08Apr2002                   </c></rc>
   </set>
  </array>
 </atominfo>
 <structure name="initialpos" >
  <crystal>
   <varray name="basis" >
    <v>      29.08103821      -0.04475969       0.00000000 </v>
    <v>     -14.58010449      24.96365020       0.00000000 </v>
    <v>       0.00000000       0.00000000      20.00000000 </v>
   </varray>
   <i name="volume">  14506.32528660 </i>
   <varray name="rec_basis" >
    <v>       0.03441761       0.02010172       0.00000000 </v>
    <v>       0.00006171       0.04009429       0.00000000 </v>
    <v>       0.00000000       0.00000000       0.05000000 </v>
   </varray>
  </crystal>
  <varray name="positions" >
   <v>       0.68916672       0.38693409       0.51028179 </v>
   <v>       0.69926730       0.31105659       0.48540256 </v>
   <v>       0.61155800       0.29967369       0.49492370 </v>
   <v>       0.77217192       0.39506162       0.50171939 </v>
   <v>       0.62267071       0.22854346       0.47012438 </v>
   <v>       0.60481312       0.37423190       0.51903155 </v>
   <v>       0.29881399       0.60948185       0.52681033 </v>
   <v>       0.31225862       0.69858932       0.53392498 </v>
   <v>       0.38747425       0.68598534       0.51963747 </v>
   <v>       0.22826039       0.62404588       0.53909518 </v>
   <v>       0.39824246       0.77039308       0.52658394 </v>
   <v>       0.37141203       0.59901739       0.51337855 </v>
   <v>       0.41206355       0.46308099       0.62663565 </v>
   <v>       0.04764539       0.58813301       0.64148134 </v>
   <v>       0.56165324       0.95184449       0.58824478 </v>
   <v>       0.40313572       0.37971573       0.45114109 </v>
   <v>       0.98424170       0.59473213       0.45562597 </v>
   <v>       0.58435673       0.01101114       0.39302649 </v>
   <v>       0.63588816       0.35235589       0.50770054 </v>
   <v>       0.71816034       0.36351563       0.49921089 </v>
   <v>       0.64589287       0.28174838       0.48390842 </v>
   <v>       0.35235236       0.63317086       0.52025195 </v>
   <v>       0.28166362       0.64445249       0.53328382 </v>
   <v>       0.36445523       0.71636002       0.52699342 </v>
   <v>       0.43834858       0.57217553       0.50432731 </v>
   <v>       0.46111484       0.48780618       0.51759558 </v>
   <v>       0.43271674       0.49774155       0.56677876 </v>
   <v>       0.42161158       0.53917242       0.56081490 </v>
   <v>       0.47805093       0.44718032       0.52222080 </v>
   <v>       0.54696676       0.42757690       0.55618958 </v>
   <v>       0.52512508       0.46075476       0.55682554 </v>
   <v>       0.42641937       0.61697629       0.49653192 </v>
   <v>       0.13376908       0.55648337       0.53383830 </v>
   <v>       0.02737680       0.53637880       0.53436752 </v>
   <v>       0.06344593       0.56542204       0.58579004 </v>
   <v>       0.11554162       0.57511439       0.58611173 </v>
   <v>       0.97001605       0.52033771       0.53270584 </v>
   <v>       0.87868431       0.45218476       0.56028909 </v>
   <v>       0.93340521       0.47343151       0.56650175 </v>
   <v>       0.19009959       0.56704102       0.53301612 </v>
   <v>       0.42394501       0.86496720       0.51950846 </v>
   <v>       0.50875507       0.97300426       0.50761421 </v>
   <v>       0.51228362       0.93627910       0.55014722 </v>
   <v>       0.47077544       0.88338171       0.55648954 </v>
   <v>       0.55025629       0.03031922       0.49787709 </v>
   <v>       0.58495773       0.12371887       0.52887658 </v>
   <v>       0.55186418       0.06926381       0.54125154 </v>
   <v>       0.37877602       0.80777179       0.52439169 </v>
   <v>       0.46688327       0.56289621       0.45495612 </v>
   <v>       0.47853947       0.52197426       0.46194230 </v>
   <v>       0.45407287       0.39853644       0.48687002 </v>
   <v>       0.47653695       0.36587716       0.48419857 </v>
   <v>       0.52358084       0.38005283       0.51865516 </v>
   <v>       0.54713343       0.34405650       0.51464021 </v>
   <v>       0.09826689       0.52741947       0.48222410 </v>
   <v>       0.04600505       0.51705755       0.48303409 </v>
   <v>       0.94880825       0.54463597       0.49215323 </v>
   <v>       0.89399537       0.52297331       0.48436884 </v>
   <v>       0.85815544       0.47636817       0.51833356 </v>
   <v>       0.79893654       0.45288837       0.50948678 </v>
   <v>       0.41966057       0.90122032       0.47722256 </v>
   <v>       0.46100633       0.95416323       0.47199686 </v>
   <v>       0.58319316       0.04903572       0.44125817 </v>
   <v>       0.61557653       0.10361168       0.42741250 </v>
   <v>       0.61699997       0.14171074       0.47129946 </v>
   <v>       0.65147267       0.20082212       0.45637508 </v>
   <v>       0.79288653       0.37812469       0.48388267 </v>
   <v>       0.58259787       0.20905484       0.46371222 </v>
   <v>       0.62447536       0.41480727       0.52070152 </v>
   <v>       0.21558132       0.65084930       0.53680406 </v>
   <v>       0.43598862       0.78267012       0.51140346 </v>
   <v>       0.34327554       0.56010364       0.50542735 </v>
   <v>       0.39932372       0.54479733       0.60062673 </v>
   <v>       0.58298041       0.43942608       0.58535028 </v>
   <v>       0.54486411       0.49836516       0.58461587 </v>
   <v>       0.53092554       0.31406527       0.55529620 </v>
   <v>       0.45212735       0.65077719       0.52966634 </v>
   <v>       0.43604576       0.63294454       0.44505727 </v>
   <v>       0.14140171       0.59762111       0.62776173 </v>
   <v>       0.85139250       0.41581988       0.58768635 </v>
   <v>       0.94868127       0.45337303       0.59794334 </v>
   <v>       0.78176596       0.46179893       0.55335419 </v>
   <v>       0.19621295       0.54547134       0.57443622 </v>
   <v>       0.19730925       0.55105665       0.48668145 </v>
   <v>       0.47620043       0.85699064       0.59033962 </v>
   <v>       0.58545233       0.15296114       0.56382505 </v>
   <v>       0.52637566       0.05602604       0.58541088 </v>
   <v>       0.68757754       0.21916085       0.48772451 </v>
   <v>       0.35494747       0.80232652       0.56975978 </v>
   <v>       0.35123271       0.79868527       0.48197341 </v>
   <v>       0.45652266       0.32933851       0.45441696 </v>
   <v>       0.48011017       0.58802776       0.41026667 </v>
   <v>       0.50110253       0.51553400       0.42317799 </v>
   <v>       0.53453697       0.32090811       0.46772744 </v>
   <v>       0.88015884       0.54320851       0.45101333 </v>
   <v>       0.11170343       0.51259113       0.44082183 </v>
   <v>       0.01872434       0.49390602       0.44274928 </v>
   <v>       0.79127633       0.47193074       0.46642858 </v>
   <v>       0.63909320       0.11538553       0.38160006 </v>
   <v>       0.38358666       0.88770409       0.44751146 </v>
   <v>       0.45706599       0.98175551       0.43853886 </v>
   <v>       0.66538170       0.20637315       0.40402389 </v>
   <v>       0.41288371       0.42056640       0.62661261 </v>
   <v>       0.39490605       0.47840050       0.67326955 </v>
   <v>       0.00491610       0.58773320       0.63627789 </v>
   <v>       0.07823201       0.60654214       0.69004788 </v>
   <v>       0.59846231       0.99914197       0.58453504 </v>
   <v>       0.56350901       0.91667900       0.62162094 </v>
   <v>       0.37674188       0.40126793       0.46519550 </v>
   <v>       0.38947196       0.34311100       0.40967563 </v>
   <v>       0.03162122       0.62086607       0.47323758 </v>
   <v>       0.96446021       0.60793819       0.40975949 </v>
   <v>       0.59776063       0.02674766       0.33469322 </v>
   <v>       0.57227133       0.96576854       0.41376074 </v>
  </varray>
 </structure>
 <calculation>
  <scstep>
   <time name="dav">  682.88  689.63</time>
   <time name="total">  683.15  689.91</time>
   <energy>
    <i name="alphaZ">     46.75961974 </i>
    <i name="ewald">  48311.81061094 </i>
    <i name="hartreedc"> -62684.77760386 </i>
    <i name="XCdc">   1465.33233026 </i>
    <i name="pawpsdc">  35859.15309702 </i>
    <i name="pawaedc"> -35941.22410621 </i>
    <i name="eentropy">     -0.00000000 </i>
    <i name="bandstr">  -5298.03259416 </i>
    <i name="atom">  17462.54022129 </i>
    <i name="e_fr_energy">   -778.43842498 </i>
    <i name="e_wo_entrp">   -778.43842498 </i>
    <i name="e_0_energy">   -778.43842498 </i>
   </energy>
  </scstep>
  <scstep>
   <time name="dav">  766.18  773.55</time>
   <time name="total">  766.23  773.60</time>
   <energy>
    <i name="e_fr_energy">   -779.20145212 </i>
    <i name="e_wo_entrp">   -779.20145212 </i>
    <i name="e_0_energy">   -779.20145212 </i>
   </energy>
  </scstep>
  <scstep>
   <time name="dav">  848.22  856.36</time>
   <time name="total">  848.26  856.40</time>
   <energy>
    <i name="e_fr_energy">   -779.22349326 </i>
    <i name="e_wo_entrp">   -779.22349326 </i>
    <i name="e_0_energy">   -779.22349326 </i>
   </energy>
  </scstep>
  <scstep>
   <time name="dav">  762.99  770.41</time>
   <time name="total">  763.03  770.45</time>
   <energy>
    <i name="e_fr_energy">   -779.22392097 </i>
    <i name="e_wo_entrp">   -779.22392097 </i>
    <i name="e_0_energy">   -779.22392097 </i>
   </energy>
  </scstep>
  <scstep>
   <time name="dav">  740.50  747.87</time>
   <time name="total">  740.54  747.91</time>
   <energy>
    <i name="e_fr_energy">   -779.22394088 </i>
    <i name="e_wo_entrp">   -779.22394088 </i>
    <i name="e_0_energy">   -779.22394088 </i>
   </energy>
  </scstep>
  <scstep>
   <time name="dav">  585.79  591.59</time>
   <time name="total">  585.82  591.61</time>
   <energy>
    <i name="alphaZ">     46.75961974 </i>
    <i name="ewald">  48311.81061094 </i>
    <i name="hartreedc"> -62684.77760386 </i>
    <i name="XCdc">   1465.33233026 </i>
    <i name="pawpsdc">  35859.15309702 </i>
    <i name="pawaedc"> -35941.22410621 </i>
    <i name="eentropy">     -0.00000000 </i>
    <i name="bandstr">  -5298.81811072 </i>
    <i name="atom">  17462.54022129 </i>
    <i name="e_fr_energy">   -779.22394153 </i>
    <i name="e_wo_entrp">   -779.22394153 </i>
    <i name="e_0_energy">   -779.22394153 </i>
   </energy>
  </scstep>
  <structure>
   <crystal>
    <varray name="basis" >
     <v>      29.08103821      -0.04475969       0.00000000 </v>
     <v>     -14.58010449      24.96365020       0.00000000 </v>
     <v>       0.00000000       0.00000000      20.00000000 </v>
    </varray>
    <i name="volume">  14506.32528660 </i>
    <varray name="rec_basis" >
     <v>       0.03441761       0.02010172       0.00000000 </v>
     <v>       0.00006171       0.04009429       0.00000000 </v>
     <v>       0.00000000       0.00000000       0.05000000 </v>
    </varray>
   </crystal>
   <varray name="positions" >
    <v>       0.68916672       0.38693409       0.51028179 </v>
    <v>       0.69926730       0.31105659       0.48540256 </v>
    <v>       0.61155800       0.29967369       0.49492370 </v>
    <v>       0.77217192       0.39506162       0.50171939 </v>
    <v>       0.62267071       0.22854346       0.47012438 </v>
    <v>       0.60481312       0.37423190       0.51903155 </v>
    <v>       0.29881399       0.60948185       0.52681033 </v>
    <v>       0.31225862       0.69858932       0.53392498 </v>
    <v>       0.38747425       0.68598534       0.51963747 </v>
    <v>       0.22826039       0.62404588       0.53909518 </v>
    <v>       0.39824246       0.77039308       0.52658394 </v>
    <v>       0.37141203       0.59901739       0.51337855 </v>
    <v>       0.41206355       0.46308099       0.62663565 </v>
    <v>       0.04764539       0.58813301       0.64148134 </v>
    <v>       0.56165324       0.95184449       0.58824478 </v>
    <v>       0.40313572       0.37971573       0.45114109 </v>
    <v>       0.98424170       0.59473213       0.45562597 </v>
    <v>       0.58435673       0.01101114       0.39302649 </v>
    <v>       0.63588816       0.35235589       0.50770054 </v>
    <v>       0.71816034       0.36351563       0.49921089 </v>
    <v>       0.64589287       0.28174838       0.48390842 </v>
    <v>       0.35235236       0.63317086       0.52025195 </v>
    <v>       0.28166362       0.64445249       0.53328382 </v>
    <v>       0.36445523       0.71636002       0.52699342 </v>
    <v>       0.43834858       0.57217553       0.50432731 </v>
    <v>       0.46111484       0.48780618       0.51759558 </v>
    <v>       0.43271674       0.49774155       0.56677876 </v>
    <v>       0.42161158       0.53917242       0.56081490 </v>
    <v>       0.47805093       0.44718032       0.52222080 </v>
    <v>       0.54696676       0.42757690       0.55618958 </v>
    <v>       0.52512508       0.46075476       0.55682554 </v>
    <v>       0.42641937       0.61697629       0.49653192 </v>
    <v>       0.13376908       0.55648337       0.53383830 </v>
    <v>       0.02737680       0.53637880       0.53436752 </v>
    <v>       0.06344593       0.56542204       0.58579004 </v>
    <v>       0.11554162       0.57511439       0.58611173 </v>
    <v>       0.97001605       0.52033771       0.53270584 </v>
    <v>       0.87868431       0.45218476       0.56028909 </v>
    <v>       0.93340521       0.47343151       0.56650175 </v>
    <v>       0.19009959       0.56704102       0.53301612 </v>
    <v>       0.42394501       0.86496720       0.51950846 </v>
    <v>       0.50875507       0.97300426       0.50761421 </v>
    <v>       0.51228362       0.93627910       0.55014722 </v>
    <v>       0.47077544       0.88338171       0.55648954 </v>
    <v>       0.55025629       0.03031922       0.49787709 </v>
    <v>       0.58495773       0.12371887       0.52887658 </v>
    <v>       0.55186418       0.06926381       0.54125154 </v>
    <v>       0.37877602       0.80777179       0.52439169 </v>
    <v>       0.46688327       0.56289621       0.45495612 </v>
    <v>       0.47853947       0.52197426       0.46194230 </v>
    <v>       0.45407287       0.39853644       0.48687002 </v>
    <v>       0.47653695       0.36587716       0.48419857 </v>
    <v>       0.52358084       0.38005283       0.51865516 </v>
    <v>       0.54713343       0.34405650       0.51464021 </v>
    <v>       0.09826689       0.52741947       0.48222410 </v>
    <v>       0.04600505       0.51705755       0.48303409 </v>
    <v>       0.94880825       0.54463597       0.49215323 </v>
    <v>       0.89399537       0.52297331       0.48436884 </v>
    <v>       0.85815544       0.47636817       0.51833356 </v>
    <v>       0.79893654       0.45288837       0.50948678 </v>
    <v>       0.41966057       0.90122032       0.47722256 </v>
    <v>       0.46100633       0.95416323       0.47199686 </v>
    <v>       0.58319316       0.04903572       0.44125817 </v>
    <v>       0.61557653       0.10361168       0.42741250 </v>
    <v>       0.61699997       0.14171074       0.47129946 </v>
    <v>       0.65147267       0.20082212       0.45637508 </v>
    <v>       0.79288653       0.37812469       0.48388267 </v>
    <v>       0.58259787       0.20905484       0.46371222 </v>
    <v>       0.62447536       0.41480727       0.52070152 </v>
    <v>       0.21558132       0.65084930       0.53680406 </v>
    <v>       0.43598862       0.78267012       0.51140346 </v>
    <v>       0.34327554       0.56010364       0.50542735 </v>
    <v>       0.39932372       0.54479733       0.60062673 </v>
    <v>       0.58298041       0.43942608       0.58535028 </v>
    <v>       0.54486411       0.49836516       0.58461587 </v>
    <v>       0.53092554       0.31406527       0.55529620 </v>
    <v>       0.45212735       0.65077719       0.52966634 </v>
    <v>       0.43604576       0.63294454       0.44505727 </v>
    <v>       0.14140171       0.59762111       0.62776173 </v>
    <v>       0.85139250       0.41581988       0.58768635 </v>
    <v>       0.94868127       0.45337303       0.59794334 </v>
    <v>       0.78176596       0.46179893       0.55335419 </v>
    <v>       0.19621295       0.54547134       0.57443622 </v>
    <v>       0.19730925       0.55105665       0.48668145 </v>
    <v>       0.47620043       0.85699064       0.59033962 </v>
    <v>       0.58545233       0.15296114       0.56382505 </v>
    <v>       0.52637566       0.05602604       0.58541088 </v>
    <v>       0.68757754       0.21916085       0.48772451 </v>
    <v>       0.35494747       0.80232652       0.56975978 </v>
    <v>       0.35123271       0.79868527       0.48197341 </v>
    <v>       0.45652266       0.32933851       0.45441696 </v>
    <v>       0.48011017       0.58802776       0.41026667 </v>
    <v>       0.50110253       0.51553400       0.42317799 </v>
    <v>       0.53453697       0.32090811       0.46772744 </v>
    <v>       0.88015884       0.54320851       0.45101333 </v>
    <v>       0.11170343       0.51259113       0.44082183 </v>
    <v>       0.01872434       0.49390602       0.44274928 </v>
    <v>       0.79127633       0.47193074       0.46642858 </v>
    <v>       0.63909320       0.11538553       0.38160006 </v>
    <v>       0.38358666       0.88770409       0.44751146 </v>
    <v>       0.45706599       0.98175551       0.43853886 </v>
    <v>       0.66538170       0.20637315       0.40402389 </v>
    <v>       0.41288371       0.42056640       0.62661261 </v>
    <v>       0.39490605       0.47840050       0.67326955 </v>
    <v>       0.00491610       0.58773320       0.63627789 </v>
    <v>       0.07823201       0.60654214       0.69004788 </v>
    <v>       0.59846231       0.99914197       0.58453504 </v>
    <v>       0.56350901       0.91667900       0.62162094 </v>
    <v>       0.37674188       0.40126793       0.46519550 </v>
    <v>       0.38947196       0.34311100       0.40967563 </v>
    <v>       0.03162122       0.62086607       0.47323758 </v>
    <v>       0.96446021       0.60793819       0.40975949 </v>
    <v>       0.59776063       0.02674766       0.33469322 </v>
    <v>       0.57227133       0.96576854       0.41376074 </v>
   </varray>
  </structure>
  <varray name="forces" >
   <v>       0.00062289       0.00001798       0.00127910 </v>
   <v>      -0.00045772       0.00041092      -0.00024770 </v>
   <v>      -0.00306353      -0.00442898       0.00234629 </v>
   <v>       0.00109725       0.00220865       0.00058230 </v>
   <v>       0.00172175      -0.00056069      -0.00137850 </v>
   <v>      -0.00224748       0.00109156       0.00048524 </v>
   <v>       0.00101175      -0.00294507       0.00154990 </v>
   <v>       0.00113712       0.00050089       0.00005569 </v>
   <v>       0.00333618       0.00010566      -0.00307698 </v>
   <v>       0.00006099       0.00143579       0.00504697 </v>
   <v>      -0.00083415       0.00049697       0.00049368 </v>
   <v>       0.00258743      -0.00415627      -0.00033996 </v>
   <v>      -0.00389688       0.00148261       0.00073958 </v>
   <v>       0.00236321       0.00169894       0.00051126 </v>
   <v>       0.00059553       0.00838219      -0.00245511 </v>
   <v>      -0.00313126       0.00243499      -0.00152329 </v>
   <v>      -0.00373701       0.00103866      -0.00073061 </v>
   <v>       0.00070753      -0.00558408      -0.00143022 </v>
   <v>       0.00172219      -0.00262947      -0.00099670 </v>
   <v>       0.00163807       0.00030281      -0.00042412 </v>
   <v>       0.00087107      -0.00094253       0.00058363 </v>
   <v>      -0.00081879      -0.00030680       0.00120095 </v>
   <v>      -0.00024000       0.00073580      -0.00059721 </v>
   <v>      -0.00475880       0.00221305       0.00112868 </v>
   <v>       0.00026383       0.00020281      -0.00042808 </v>
   <v>       0.00054318       0.00096480       0.00009394 </v>
   <v>       0.00014515       0.00114740       0.00114760 </v>
   <v>       0.00208726      -0.00068315       0.00047328 </v>
   <v>       0.00038921       0.00102073      -0.00038557 </v>
   <v>      -0.00127268      -0.00069423       0.00199189 </v>
   <v>      -0.00023688      -0.00034325       0.00048616 </v>
   <v>      -0.00274187       0.00039277      -0.00067358 </v>
   <v>       0.00002302      -0.00115168       0.00049550 </v>
   <v>       0.00109182       0.00079895       0.00088258 </v>
   <v>      -0.00170483      -0.00134201       0.00031943 </v>
   <v>       0.00132052      -0.00042693       0.00119315 </v>
   <v>      -0.00077608       0.00092198      -0.00084814 </v>
   <v>      -0.00269240       0.00003223      -0.00119648 </v>
   <v>      -0.00140191       0.00178560       0.00018598 </v>
   <v>       0.00059176       0.00014308      -0.00099290 </v>
   <v>       0.00031977      -0.00138833      -0.00081101 </v>
   <v>       0.00271490       0.00153427      -0.00234448 </v>
   <v>       0.00172643      -0.00032499       0.00204587 </v>
   <v>      -0.00053253       0.00058341      -0.00162456 </v>
   <v>       0.00035463      -0.00160757      -0.00086846 </v>
   <v>      -0.00021197      -0.00219708       0.00082239 </v>
   <v>      -0.00258333      -0.00024748       0.00153722 </v>
   <v>      -0.00080830       0.00086654       0.00028104 </v>
   <v>       0.00162927      -0.00013520      -0.00000726 </v>
   <v>       0.00141130       0.00075203       0.00029583 </v>
   <v>       0.00073384      -0.00190365       0.00275562 </v>
   <v>       0.00033035       0.00037382      -0.00072181 </v>
   <v>      -0.00120452       0.00104149       0.00073650 </v>
   <v>      -0.00058037      -0.00048961      -0.00045010 </v>
   <v>       0.00066197      -0.00117944      -0.00025572 </v>
   <v>      -0.00072218       0.00050438       0.00043454 </v>
   <v>       0.00162424      -0.00109285      -0.00221878 </v>
   <v>      -0.00027606      -0.00035869      -0.00009910 </v>
   <v>      -0.00174611       0.00106498      -0.00007955 </v>
   <v>       0.00074041      -0.00001962      -0.00146700 </v>
   <v>      -0.00145408      -0.00058631       0.00012204 </v>
   <v>      -0.00208082      -0.00263517       0.00058159 </v>
   <v>       0.00064546      -0.00049845      -0.00322942 </v>
   <v>       0.00105930       0.00089658       0.00101354 </v>
   <v>       0.00040795       0.00121424      -0.00180870 </v>
   <v>      -0.00078426       0.00127583      -0.00026277 </v>
   <v>       0.00098255      -0.00022526      -0.00021498 </v>
   <v>      -0.00081005      -0.00116938       0.00017722 </v>
   <v>      -0.00008804       0.00148243      -0.00001793 </v>
   <v>      -0.00015328      -0.00092241       0.00102082 </v>
   <v>       0.00125519       0.00081811      -0.00082771 </v>
   <v>       0.00073250       0.00126357      -0.00003286 </v>
   <v>      -0.00003599       0.00079079       0.00206107 </v>
   <v>       0.00031294      -0.00151471       0.00189383 </v>
   <v>       0.00109836      -0.00249808       0.00204798 </v>
   <v>      -0.00144964      -0.00214829      -0.00052983 </v>
   <v>       0.00075467       0.00102667       0.00074036 </v>
   <v>       0.00135592       0.00090524      -0.00082378 </v>
   <v>      -0.00014253       0.00040851       0.00049778 </v>
   <v>      -0.00176423       0.00163206       0.00022899 </v>
   <v>       0.00002514       0.00033607       0.00110752 </v>
   <v>      -0.00099998       0.00086845      -0.00087508 </v>
   <v>      -0.00034229       0.00052854       0.00031827 </v>
   <v>       0.00057039      -0.00029590      -0.00264586 </v>
   <v>       0.00247840       0.00005333      -0.00047526 </v>
   <v>      -0.00083243      -0.00103778      -0.00038081 </v>
   <v>      -0.00023902      -0.00027457      -0.00173559 </v>
   <v>      -0.00104504      -0.00111875       0.00008203 </v>
   <v>       0.00070513      -0.00168876      -0.00011846 </v>
   <v>      -0.00006112       0.00020178       0.00039576 </v>
   <v>      -0.00065834       0.00012834       0.00045832 </v>
   <v>       0.00132199       0.00126743       0.00100650 </v>
   <v>       0.00024999       0.00226095       0.00217489 </v>
   <v>      -0.00007687      -0.00102186      -0.00004084 </v>
   <v>       0.00108208      -0.00113169      -0.00171636 </v>
   <v>       0.00146102       0.00066891       0.00046943 </v>
   <v>       0.00085096      -0.00107129      -0.00053424 </v>
   <v>       0.00009100       0.00027074      -0.00131001 </v>
   <v>       0.00044960       0.00076055      -0.00028285 </v>
   <v>      -0.00045463      -0.00117037       0.00125939 </v>
   <v>      -0.00229562       0.00086771      -0.00077811 </v>
   <v>      -0.00030987      -0.00004071       0.00255165 </v>
   <v>      -0.00136230      -0.00109925       0.00051129 </v>
   <v>       0.00484833       0.00020489       0.00027517 </v>
   <v>      -0.00192171      -0.00150301       0.00042887 </v>
   <v>      -0.00328393       0.00028096      -0.00056507 </v>
   <v>      -0.00204753       0.00083898      -0.00887377 </v>
   <v>       0.00367126       0.00008605       0.00520432 </v>
   <v>       0.00482622      -0.00367810       0.00168534 </v>
   <v>      -0.00513189      -0.00290977      -0.00251428 </v>
   <v>       0.00208805       0.00030805       0.00076101 </v>
   <v>       0.00169956      -0.00307818      -0.00012198 </v>
   <v>       0.00122268       0.00631667       0.00085705 </v>
   <v>      -0.00191932       0.00380653      -0.00272427 </v>
  </varray>
  <varray name="stress" >
   <v>       0.01169708      -0.00262339      -0.01685188 </v>
   <v>      -0.00262339      -0.00524711       0.00044383 </v>
   <v>      -0.01685188       0.00044383      -0.20406740 </v>
  </varray>
  <energy>
   <i name="e_fr_energy">   -781.58198082 </i>
   <i name="e_wo_entrp">   -781.58198082 </i>
   <i name="e_0_energy">     -0.00000000 </i>
  </energy>
  <time name="totalsc"> 5081.40 5133.07</time>
  <eigenvalues>
   <array>
    <dimension dim="1">band</dimension>
    <dimension dim="2">kpoint</dimension>
    <dimension dim="3">spin</dimension>
    <field>eigene</field>
    <field>occ</field>
    <set>
     <set comment="spin 1">
      <set comment="kpoint 1">
       <r>  -30.6064    1.0000 </r>
       <r>  -30.5967    1.0000 </r>
       <r>  -30.5947    1.0000 </r>
       <r>  -30.5886    1.0000 </r>
       <r>  -30.5686    1.0000 </r>
       <r>  -30.5512    1.0000 </r>
       <r>  -26.2106    1.0000 </r>
       <r>  -26.1991    1.0000 </r>
       <r>  -26.1973    1.0000 </r>
       <r>  -26.1839    1.0000 </r>
       <r>  -26.1610    1.0000 </r>
       <r>  -26.1468    1.0000 </r>
       <r>  -25.5586    1.0000 </r>
       <r>  -25.4353    1.0000 </r>
       <r>  -24.0632    1.0000 </r>
       <r>  -24.0543    1.0000 </r>
       <r>  -23.9340    1.0000 </r>
       <r>  -23.9300    1.0000 </r>
       <r>  -22.7651    1.0000 </r>
       <r>  -22.6515    1.0000 </r>
       <r>  -22.5283    1.0000 </r>
       <r>  -22.5095    1.0000 </r>
       <r>  -22.3497    1.0000 </r>
       <r>  -22.0446    1.0000 </r>
       <r>  -22.0272    1.0000 </r>
       <r>  -21.8711    1.0000 </r>
       <r>  -21.3851    1.0000 </r>
       <r>  -21.3742    1.0000 </r>
       <r>  -21.2397    1.0000 </r>
       <r>  -21.2258    1.0000 </r>
       <r>  -20.2295    1.0000 </r>
       <r>  -20.2185    1.0000 </r>
       <r>  -20.2050    1.0000 </r>
       <r>  -20.0568    1.0000 </r>
       <r>  -20.0366    1.0000 </r>
       <r>  -20.0315    1.0000 </r>
       <r>  -19.8315    1.0000 </r>
       <r>  -19.8063    1.0000 </r>
       <r>  -19.7938    1.0000 </r>
       <r>  -19.1218    1.0000 </r>
       <r>  -19.1046    1.0000 </r>
       <r>  -19.0434    1.0000 </r>
       <r>  -17.9620    1.0000 </r>
       <r>  -17.9538    1.0000 </r>
       <r>  -17.7386    1.0000 </r>
       <r>  -17.5645    1.0000 </r>
       <r>  -17.5585    1.0000 </r>
       <r>  -17.4557    1.0000 </r>
       <r>  -17.4437    1.0000 </r>
       <r>  -17.4152    1.0000 </r>
       <r>  -17.3837    1.0000 </r>
       <r>  -16.9216    1.0000 </r>
       <r>  -16.9041    1.0000 </r>
       <r>  -16.7659    1.0000 </r>
       <r>  -15.8413    1.0000 </r>
       <r>  -15.8235    1.0000 </r>
       <r>  -15.6152    1.0000 </r>
       <r>  -15.5846    1.0000 </r>
       <r>  -15.5033    1.0000 </r>
       <r>  -15.3465    1.0000 </r>
       <r>  -15.3363    1.0000 </r>
       <r>  -15.3155    1.0000 </r>
       <r>  -15.0977    1.0000 </r>
       <r>  -15.0692    1.0000 </r>
       <r>  -14.8767    1.0000 </r>
       <r>  -14.6706    1.0000 </r>
       <r>  -14.6021    1.0000 </r>
       <r>  -14.5733    1.0000 </r>
       <r>  -14.3119    1.0000 </r>
       <r>  -14.2988    1.0000 </r>
       <r>  -14.2701    1.0000 </r>
       <r>  -14.1003    1.0000 </r>
       <r>  -13.7527    1.0000 </r>
       <r>  -13.7362    1.0000 </r>
       <r>  -13.6831    1.0000 </r>
       <r>  -13.4151    1.0000 </r>
       <r>  -13.2485    1.0000 </r>
       <r>  -13.2319    1.0000 </r>
       <r>  -13.2148    1.0000 </r>
       <r>  -13.0154    1.0000 </r>
       <r>  -13.0104    1.0000 </r>
       <r>  -12.9969    1.0000 </r>
       <r>  -12.9723    1.0000 </r>
       <r>  -12.9433    1.0000 </r>
       <r>  -12.9408    1.0000 </r>
       <r>  -12.8584    1.0000 </r>
       <r>  -12.6726    1.0000 </r>
       <r>  -12.6318    1.0000 </r>
       <r>  -12.5647    1.0000 </r>
       <r>  -12.5456    1.0000 </r>
       <r>  -12.5264    1.0000 </r>
       <r>  -12.4723    1.0000 </r>
       <r>  -12.4536    1.0000 </r>
       <r>  -12.4498    1.0000 </r>
       <r>  -12.4010    1.0000 </r>
       <r>  -12.3372    1.0000 </r>
       <r>  -12.3083    1.0000 </r>
       <r>  -12.2334    1.0000 </r>
       <r>  -12.2120    1.0000 </r>
       <r>  -11.9393    1.0000 </r>
       <r>  -11.8925    1.0000 </r>
       <r>  -11.8609    1.0000 </r>
       <r>  -11.8560    1.0000 </r>
       <r>  -11.8459    1.0000 </r>
       <r>  -11.8082    1.0000 </r>
       <r>  -11.6778    1.0000 </r>
       <r>  -11.4639    1.0000 </r>
       <r>  -11.4182    1.0000 </r>
       <r>  -11.3344    1.0000 </r>
       <r>  -11.2520    1.0000 </r>
       <r>  -11.1893    1.0000 </r>
       <r>  -11.1468    1.0000 </r>
       <r>  -11.0659    1.0000 </r>
       <r>  -11.0237    1.0000 </r>
       <r>  -10.9955    1.0000 </r>
       <r>  -10.9675    1.0000 </r>
       <r>  -10.9491    1.0000 </r>
       <r>  -10.9337    1.0000 </r>
       <r>  -10.8862    1.0000 </r>
       <r>  -10.8546    1.0000 </r>
       <r>  -10.8085    1.0000 </r>
       <r>  -10.6997    1.0000 </r>
       <r>  -10.6044    1.0000 </r>
       <r>  -10.5556    1.0000 </r>
       <r>  -10.5351    1.0000 </r>
       <r>  -10.5095    1.0000 </r>
       <r>  -10.2819    1.0000 </r>
       <r>  -10.2519    1.0000 </r>
       <r>  -10.1112    1.0000 </r>
       <r>  -10.0797    1.0000 </r>
       <r>  -10.0287    1.0000 </r>
       <r>   -9.5891    1.0000 </r>
       <r>   -9.5800    1.0000 </r>
       <r>   -9.5744    1.0000 </r>
       <r>   -9.5233    1.0000 </r>
       <r>   -9.5079    1.0000 </r>
       <r>   -9.3583    1.0000 </r>
       <r>   -9.3280    1.0000 </r>
       <r>   -9.2765    1.0000 </r>
       <r>   -9.2464    1.0000 </r>
       <r>   -9.2082    1.0000 </r>
       <r>   -9.1869    1.0000 </r>
       <r>   -9.1683    1.0000 </r>
       <r>   -9.0352    1.0000 </r>
       <r>   -8.9913    1.0000 </r>
       <r>   -8.9395    1.0000 </r>
       <r>   -8.7883    1.0000 </r>
       <r>   -8.6912    1.0000 </r>
       <r>   -8.6654    1.0000 </r>
       <r>   -8.6411    1.0000 </r>
       <r>   -8.6025    1.0000 </r>
       <r>   -8.4058    1.0000 </r>
       <r>   -8.3797    1.0000 </r>
       <r>   -8.2855    1.0000 </r>
       <r>   -8.2502    1.0000 </r>
       <r>   -7.5403    1.0000 </r>
       <r>   -7.5311    1.0000 </r>
       <r>   -7.5285    1.0000 </r>
       <r>   -7.5261    1.0000 </r>
       <r>   -7.5103    1.0000 </r>
       <r>   -7.4923    1.0000 </r>
       <r>   -7.3560    1.0000 </r>
       <r>   -7.3268    1.0000 </r>
       <r>   -7.2843    1.0000 </r>
       <r>   -7.1548    1.0000 </r>
       <r>   -7.1388    1.0000 </r>
       <r>   -7.1305    1.0000 </r>
       <r>   -7.1150    1.0000 </r>
       <r>   -7.0947    1.0000 </r>
       <r>   -7.0698    1.0000 </r>
       <r>   -6.9436    1.0000 </r>
       <r>   -6.9416    1.0000 </r>
       <r>   -6.9190    1.0000 </r>
       <r>   -6.7858    1.0000 </r>
       <r>   -6.7575    1.0000 </r>
       <r>   -6.7510    1.0000 </r>
       <r>   -6.6983    1.0000 </r>
       <r>   -6.6598    1.0000 </r>
       <r>   -6.6486    1.0000 </r>
       <r>   -6.3227    1.0000 </r>
       <r>   -6.3101    1.0000 </r>
       <r>   -6.3013    1.0000 </r>
       <r>   -6.2920    1.0000 </r>
       <r>   -6.2460    1.0000 </r>
       <r>   -6.2388    1.0000 </r>
       <r>   -5.9556    1.0000 </r>
       <r>   -5.9289    1.0000 </r>
       <r>   -5.8162    1.0000 </r>
       <r>   -5.8071    1.0000 </r>
       <r>   -5.6836    1.0000 </r>
       <r>   -5.5965    1.0000 </r>
       <r>   -5.5167    1.0000 </r>
       <r>   -5.4863    1.0000 </r>
       <r>   -5.3996    1.0000 </r>
       <r>   -5.3878    1.0000 </r>
       <r>   -3.3804    0.0000 </r>
       <r>   -3.3631    0.0000 </r>
       <r>   -3.3555    0.0000 </r>
       <r>   -3.3466    0.0000 </r>
       <r>   -3.3096    0.0000 </r>
       <r>   -3.3094    0.0000 </r>
       <r>   -1.9066    0.0000 </r>
       <r>   -1.8780    0.0000 </r>
       <r>   -1.8744    0.0000 </r>
       <r>   -1.7068    0.0000 </r>
       <r>   -1.6841    0.0000 </r>
       <r>   -1.6667    0.0000 </r>
       <r>   -1.4401    0.0000 </r>
       <r>   -1.4137    0.0000 </r>
       <r>   -1.3972    0.0000 </r>
       <r>   -1.0162    0.0000 </r>
       <r>   -1.0019    0.0000 </r>
       <r>   -0.9771    0.0000 </r>
       <r>   -0.7420    0.0000 </r>
       <r>   -0.7331    0.0000 </r>
       <r>   -0.6375    0.0000 </r>
       <r>   -0.6206    0.0000 </r>
       <r>   -0.5472    0.0000 </r>
       <r>   -0.3846    0.0000 </r>
       <r>   -0.3828    0.0000 </r>
       <r>   -0.3671    0.0000 </r>
       <r>   -0.1668    0.0000 </r>
       <r>   -0.1168    0.0000 </r>
       <r>   -0.0375    0.0000 </r>
       <r>    0.0195    0.0000 </r>
       <r>    0.0498    0.0000 </r>
       <r>    0.0792    0.0000 </r>
       <r>    0.1334    0.0000 </r>
       <r>    0.1564    0.0000 </r>
       <r>    0.2040    0.0000 </r>
       <r>    0.2305    0.0000 </r>
       <r>    0.2623    0.0000 </r>
       <r>    0.3621    0.0000 </r>
       <r>    0.4272    0.0000 </r>
       <r>    0.4888    0.0000 </r>
       <r>    0.5157    0.0000 </r>
       <r>    0.5575    0.0000 </r>
       <r>    0.6047    0.0000 </r>
       <r>    0.6204    0.0000 </r>
       <r>    0.6491    0.0000 </r>
       <r>    0.6923    0.0000 </r>
       <r>    0.7128    0.0000 </r>
       <r>    0.7297    0.0000 </r>
       <r>    0.7380    0.0000 </r>
       <r>    0.7669    0.0000 </r>
       <r>    0.7811    0.0000 </r>
       <r>    0.8024    0.0000 </r>
       <r>    0.8039    0.0000 </r>
       <r>    0.8178    0.0000 </r>
       <r>    0.8568    0.0000 </r>
       <r>    0.8776    0.0000 </r>
       <r>    0.9056    0.0000 </r>
       <r>    0.9437    0.0000 </r>
       <r>    0.9741    0.0000 </r>
       <r>    0.9924    0.0000 </r>
       <r>    1.0254    0.0000 </r>
      </set>
      <set comment="kpoint 2">
       <r>  -30.6064    1.0000 </r>
       <r>  -30.5967    1.0000 </r>
       <r>  -30.5947    1.0000 </r>
       <r>  -30.5886    1.0000 </r>
       <r>  -30.5686    1.0000 </r>
       <r>  -30.5512    1.0000 </r>
       <r>  -26.2106    1.0000 </r>
       <r>  -26.1991    1.0000 </r>
       <r>  -26.1973    1.0000 </r>
       <r>  -26.1839    1.0000 </r>
       <r>  -26.1610    1.0000 </r>
       <r>  -26.1468    1.0000 </r>
[...]
       <r>   -25.9198     0.0000    24.0000 </r>
       <r>   -25.8037     0.0000    24.0000 </r>
       <r>   -25.6876     0.0000    24.0000 </r>
       <r>   -25.5715     0.6023    24.0699 </r>
       <r>   -25.4554     0.0395    26.0046 </r>
       <r>   -25.3392     0.0000    28.0000 </r>
       <r>   -25.2231     0.0000    28.0000 </r>
       <r>   -25.1070     0.0000    28.0000 </r>
       <r>   -24.9909     0.0000    28.0000 </r>
       <r>   -24.8748     0.0000    28.0000 </r>
       <r>   -24.7587     0.0000    28.0000 </r>
       <r>   -24.6426     0.0000    28.0000 </r>
       <r>   -24.5265     0.0000    28.0000 </r>
       <r>   -24.4104     0.0000    28.0000 </r>
       <r>   -24.2943     0.0000    28.0000 </r>
       <r>   -24.1781     0.0000    28.0000 </r>
       <r>   -24.0620    12.1547    29.4113 </r>
       <r>   -23.9459     1.0128    32.1176 </r>
       <r>   -23.8298     0.0000    36.0000 </r>
       <r>   -23.7137     0.0000    36.0000 </r>
       <r>   -23.5976     0.0000    36.0000 </r>
       <r>   -23.4815     0.0000    36.0000 </r>
       <r>   -23.3654     0.0000    36.0000 </r>
       <r>   -23.2493     0.0000    36.0000 </r>
       <r>   -23.1332     0.0000    36.0000 </r>
       <r>   -23.0170     0.0000    36.0000 </r>
       <r>   -22.9009     0.0000    36.0000 </r>
       <r>   -22.7848     0.0078    36.0009 </r>
       <r>   -22.6687    10.2445    39.1895 </r>
       <r>   -22.5526     0.0008    40.0001 </r>
       <r>   -22.4365    20.7575    43.9768 </r>
       <r>   -22.3204     4.7369    46.0000 </r>
       <r>   -22.2043     0.0000    46.0000 </r>
       <r>   -22.0882     0.0000    46.0000 </r>
       <r>   -21.9720    27.0747    49.1437 </r>
       <r>   -21.8559    14.9123    51.9981 </r>
       <r>   -21.7398     0.0000    52.0000 </r>
       <r>   -21.6237     0.0000    52.0000 </r>
       <r>   -21.5076     0.0000    52.0000 </r>
       <r>   -21.3915     1.6011    52.1859 </r>
       <r>   -21.2754     0.0007    56.0001 </r>
       <r>   -21.1593    17.2250    60.0000 </r>
       <r>   -21.0432     0.0000    60.0000 </r>
       <r>   -20.9271     0.0000    60.0000 </r>
       <r>   -20.8109     0.0000    60.0000 </r>
       <r>   -20.6948     0.0000    60.0000 </r>
       <r>   -20.5787     0.0000    60.0000 </r>
       <r>   -20.4626     0.0000    60.0000 </r>
       <r>   -20.3465     0.0000    60.0000 </r>
       <r>   -20.2304     8.6346    61.0026 </r>
       <r>   -20.1143     0.0000    66.0000 </r>
       <r>   -19.9982    51.6749    72.0000 </r>
       <r>   -19.8821     0.0000    72.0000 </r>
       <r>   -19.7659    51.6743    77.9999 </r>
       <r>   -19.6498     0.0000    78.0000 </r>
       <r>   -19.5337     0.0000    78.0000 </r>
       <r>   -19.4176     0.0000    78.0000 </r>
       <r>   -19.3015     0.0000    78.0000 </r>
       <r>   -19.1854     0.0000    78.0000 </r>
       <r>   -19.0693    39.3534    82.5693 </r>
       <r>   -18.9532     0.0000    84.0000 </r>
       <r>   -18.8371     0.0000    84.0000 </r>
       <r>   -18.7210     0.0000    84.0000 </r>
       <r>   -18.6048     0.0000    84.0000 </r>
       <r>   -18.4887     0.0000    84.0000 </r>
       <r>   -18.3726     0.0000    84.0000 </r>
       <r>   -18.2565     0.0000    84.0000 </r>
       <r>   -18.1404     0.0000    84.0000 </r>
       <r>   -18.0243     0.0000    84.0000 </r>
       <r>   -17.9082    22.4041    86.6013 </r>
       <r>   -17.7921    14.0724    89.6006 </r>
       <r>   -17.6760     1.7225    90.0000 </r>
       <r>   -17.5599    11.2605    91.3075 </r>
       <r>   -17.4437    41.5565    97.2918 </r>
       <r>   -17.3276    17.2250   102.0000 </r>
       <r>   -17.2115     0.0000   102.0000 </r>
       <r>   -17.0954     0.0000   102.0000 </r>
       <r>   -16.9793     0.0000   102.0000 </r>
       <r>   -16.8632    33.4738   105.8867 </r>
       <r>   -16.7471    17.2208   107.9995 </r>
       <r>   -16.6310     0.0000   108.0000 </r>
       <r>   -16.5149     0.0000   108.0000 </r>
       <r>   -16.3987     0.0000   108.0000 </r>
       <r>   -16.2826     0.0000   108.0000 </r>
       <r>   -16.1665     0.0000   108.0000 </r>
       <r>   -16.0504     0.0000   108.0000 </r>
       <r>   -15.9343     0.0000   108.0000 </r>
       <r>   -15.8182    18.1298   110.1051 </r>
       <r>   -15.7021    18.5000   112.9147 </r>
       <r>   -15.5860    18.0347   115.6773 </r>
       <r>   -15.4699     2.9669   116.3445 </r>
       <r>   -15.3538    25.7527   119.8068 </r>
       <r>   -15.2376    17.2250   124.0000 </r>
       <r>   -15.1215     0.0871   124.0101 </r>
       <r>   -15.0054    17.2250   128.0000 </r>
       <r>   -14.8893     0.0462   128.0054 </r>
       <r>   -14.7732    23.3892   131.1657 </r>
       <r>   -14.6571     3.2860   131.9982 </r>
       <r>   -14.5410    19.3470   134.2464 </r>
       <r>   -14.4249    13.7795   135.9999 </r>
       <r>   -14.3088     9.6368   137.9856 </r>
       <r>   -14.1927    17.2250   142.0000 </r>
       <r>   -14.0765    17.2091   143.9982 </r>
       <r>   -13.9604     0.0000   144.0000 </r>
       <r>   -13.8443     0.0000   144.0000 </r>
       <r>   -13.7282    24.8032   146.8799 </r>
       <r>   -13.6121     3.3015   150.0000 </r>
       <r>   -13.4960     0.0000   150.0000 </r>
       <r>   -13.3799    17.2250   152.0000 </r>
       <r>   -13.2638    15.3821   153.7860 </r>
       <r>   -13.1477     3.1604   156.3670 </r>
       <r>   -13.0315     1.0302   158.0196 </r>
       <r>   -12.9154    73.3670   170.8187 </r>
       <r>   -12.7993     2.8708   172.0000 </r>
       <r>   -12.6832     0.5203   172.0604 </r>
       <r>   -12.5671    33.3251   177.8694 </r>
       <r>   -12.4510    53.3936   185.9329 </r>
       <r>   -12.3349    25.8154   190.9974 </r>
       <r>   -12.2188    35.0624   196.7211 </r>
       <r>   -12.1027     0.0000   198.0000 </r>
       <r>   -11.9866     0.0000   198.0000 </r>
       <r>   -11.8704    40.8880   202.7475 </r>
       <r>   -11.7543    17.2250   210.0000 </r>
       <r>   -11.6382     2.9311   210.3403 </r>
       <r>   -11.5221    22.2300   213.0811 </r>
       <r>   -11.4060    20.6214   215.9944 </r>
       <r>   -11.2899    17.2249   218.0000 </r>
       <r>   -11.1738    29.6024   221.8871 </r>
       <r>   -11.0577    17.1073   225.9863 </r>
       <r>   -10.9416    69.6902   234.2084 </r>
       <r>   -10.8255    34.4534   240.0004 </r>
       <r>   -10.7093    17.0006   242.1906 </r>
       <r>   -10.5932    20.2790   245.9879 </r>
       <r>   -10.4771    32.5839   252.0000 </r>
       <r>   -10.3610     0.0000   252.0000 </r>
       <r>   -10.2449    12.7662   253.4823 </r>
       <r>   -10.1288    24.2690   257.5512 </r>
       <r>   -10.0127    30.1296   261.9984 </r>
       <r>    -9.8966     0.0000   262.0000 </r>
       <r>    -9.7805     0.0000   262.0000 </r>
       <r>    -9.6643     0.0000   262.0000 </r>
       <r>    -9.5482    47.7091   267.5395 </r>
       <r>    -9.4321    26.1228   273.0331 </r>
       <r>    -9.3160    13.1006   275.1711 </r>
       <r>    -9.1999    49.4908   281.7464 </r>
       <r>    -9.0838     0.0000   286.0000 </r>
       <r>    -8.9677    34.5055   290.0064 </r>
       <r>    -8.8516     0.0000   292.0000 </r>
       <r>    -8.7355    17.2250   294.0000 </r>
       <r>    -8.6194    46.3058   299.9766 </r>
       <r>    -8.5032     0.0000   302.0000 </r>
       <r>    -8.3871    19.4262   304.2556 </r>
       <r>    -8.2710    16.9335   307.9662 </r>
       <r>    -8.1549     0.0000   310.0000 </r>
       <r>    -8.0388     0.0000   310.0000 </r>
       <r>    -7.9227     0.0000   310.0000 </r>
       <r>    -7.8066     0.0000   310.0000 </r>
       <r>    -7.6905     0.0000   310.0000 </r>
       <r>    -7.5744     0.0000   310.0000 </r>
       <r>    -7.4582    86.1249   322.0000 </r>
       <r>    -7.3421    17.0932   323.9847 </r>
       <r>    -7.2260    17.2250   328.0000 </r>
       <r>    -7.1099    65.0875   335.5573 </r>
       <r>    -6.9938    17.2250   340.0000 </r>
       <r>    -6.8777    51.6750   346.0000 </r>
       <r>    -6.7616    23.0103   348.6717 </r>
       <r>    -6.6455    45.9849   357.3393 </r>
       <r>    -6.5294     0.0000   358.0000 </r>
       <r>    -6.4133     0.0000   358.0000 </r>
       <r>    -6.2971    50.0960   363.8167 </r>
       <r>    -6.1810    34.4500   370.0000 </r>
       <r>    -6.0649     0.0000   370.0000 </r>
       <r>    -5.9488    14.3407   371.6651 </r>
       <r>    -5.8327     0.1723   374.0200 </r>
       <r>    -5.7166     0.0000   378.0000 </r>
       <r>    -5.6005     4.9188   380.5711 </r>
       <r>    -5.4844    27.6822   385.2142 </r>
       <r>    -5.3683    34.4004   389.9942 </r>
       <r>    -5.2522     0.0000   390.0000 </r>
       <r>    -5.1360     0.0000   390.0000 </r>
       <r>    -5.0199     0.0000   390.0000 </r>
       <r>    -4.9038     0.0000   390.0000 </r>
       <r>    -4.7877     0.0000   390.0000 </r>
       <r>    -4.6716     0.0000   390.0000 </r>
       <r>    -4.5555     0.0000   390.0000 </r>
       <r>    -4.4394     0.0000   390.0000 </r>
       <r>    -4.3233     0.0000   390.0000 </r>
       <r>    -4.2072     0.0000   390.0000 </r>
       <r>    -4.0910     0.0000   390.0000 </r>
       <r>    -3.9749     0.0000   390.0000 </r>
       <r>    -3.8588     0.0000   390.0000 </r>
       <r>    -3.7427     0.0000   390.0000 </r>
       <r>    -3.6266     0.0000   390.0000 </r>
       <r>    -3.5105     0.0000   390.0000 </r>
       <r>    -3.3944     0.4147   390.0482 </r>
       <r>    -3.2783    68.8998   402.0000 </r>
       <r>    -3.1622     0.0000   402.0000 </r>
       <r>    -3.0461     0.0000   402.0000 </r>
       <r>    -2.9299     0.0000   402.0000 </r>
       <r>    -2.8138     0.0000   402.0000 </r>
       <r>    -2.6977     0.0000   402.0000 </r>
       <r>    -2.5816     0.0000   402.0000 </r>
       <r>    -2.4655     0.0000   402.0000 </r>
       <r>    -2.3494     0.0000   402.0000 </r>
       <r>    -2.2333     0.0000   402.0000 </r>
       <r>    -2.1172     0.0000   402.0000 </r>
       <r>    -2.0011     0.0000   402.0000 </r>
       <r>    -1.8850    21.3787   404.4823 </r>
       <r>    -1.7688     0.0000   408.0000 </r>
       <r>    -1.6527    51.2162   413.9467 </r>
       <r>    -1.5366     0.0000   414.0000 </r>
       <r>    -1.4205    20.1388   416.3383 </r>
       <r>    -1.3044     0.0000   420.0000 </r>
       <r>    -1.1883     0.0000   420.0000 </r>
       <r>    -1.0722     0.0000   420.0000 </r>
       <r>    -0.9561    51.6554   425.9977 </r>
       <r>    -0.8400     0.0000   426.0000 </r>
       <r>    -0.7238    32.6414   429.7900 </r>
       <r>    -0.6077    33.8924   433.9353 </r>
       <r>    -0.4916    17.2250   436.0000 </r>
       <r>    -0.3755    32.0572   439.7222 </r>
       <r>    -0.2594    14.5957   441.9114 </r>
       <r>    -0.1433    20.5467   444.3857 </r>
       <r>    -0.0272    14.8873   447.7286 </r>
       <r>     0.0889    62.6266   455.2716 </r>
       <r>     0.2050    14.8368   458.1227 </r>
       <r>     0.3211    33.8704   462.8827 </r>
       <r>     0.4373    27.1952   467.9243 </r>
       <r>     0.5534    45.5574   473.8397 </r>
       <r>     0.6695    57.6208   482.7070 </r>
       <r>     0.7856    38.8148   490.0568 </r>
       <r>     0.9017    60.2431   499.7949 </r>
       <r>     1.0178    64.2762   509.9298 </r>
       <r>     1.1339     1.1483   512.0000 </r>
       <r>     1.2500     0.0000   512.0000 </r>
       <r>     1.3661     0.0000   512.0000 </r>
       <r>     1.4823     0.0000   512.0000 </r>
       <r>     1.5984     0.0000   512.0000 </r>
       <r>     1.7145     0.0000   512.0000 </r>
       <r>     1.8306     0.0000   512.0000 </r>
       <r>     1.9467     0.0000   512.0000 </r>
       <r>     2.0628     0.0000   512.0000 </r>
       <r>     2.1789     0.0000   512.0000 </r>
       <r>     2.2950     0.0000   512.0000 </r>
       <r>     2.4111     0.0000   512.0000 </r>
       <r>     2.5272     0.0000   512.0000 </r>
       <r>     2.6434     0.0000   512.0000 </r>
      </set>
     </set>
    </array>
   </total>
  </dos>
 </calculation>
 <structure name="finalpos" >
  <crystal>
   <varray name="basis" >
    <v>      29.08103821      -0.04475969       0.00000000 </v>
    <v>     -14.58010449      24.96365020       0.00000000 </v>
    <v>       0.00000000       0.00000000      20.00000000 </v>
   </varray>
   <i name="volume">  14506.32528660 </i>
   <varray name="rec_basis" >
    <v>       0.03441761       0.02010172       0.00000000 </v>
    <v>       0.00006171       0.04009429       0.00000000 </v>
    <v>       0.00000000       0.00000000       0.05000000 </v>
   </varray>
  </crystal>
  <varray name="positions" >
   <v>       0.68916672       0.38693409       0.51028179 </v>
   <v>       0.69926730       0.31105659       0.48540256 </v>
   <v>       0.61155800       0.29967369       0.49492370 </v>
   <v>       0.77217192       0.39506162       0.50171939 </v>
   <v>       0.62267071       0.22854346       0.47012438 </v>
   <v>       0.60481312       0.37423190       0.51903155 </v>
   <v>       0.29881399       0.60948185       0.52681033 </v>
   <v>       0.31225862       0.69858932       0.53392498 </v>
   <v>       0.38747425       0.68598534       0.51963747 </v>
   <v>       0.22826039       0.62404588       0.53909518 </v>
   <v>       0.39824246       0.77039308       0.52658394 </v>
   <v>       0.37141203       0.59901739       0.51337855 </v>
   <v>       0.41206355       0.46308099       0.62663565 </v>
   <v>       0.04764539       0.58813301       0.64148134 </v>
   <v>       0.56165324       0.95184449       0.58824478 </v>
   <v>       0.40313572       0.37971573       0.45114109 </v>
   <v>       0.98424170       0.59473213       0.45562597 </v>
   <v>       0.58435673       0.01101114       0.39302649 </v>
   <v>       0.63588816       0.35235589       0.50770054 </v>
   <v>       0.71816034       0.36351563       0.49921089 </v>
   <v>       0.64589287       0.28174838       0.48390842 </v>
   <v>       0.35235236       0.63317086       0.52025195 </v>
   <v>       0.28166362       0.64445249       0.53328382 </v>
   <v>       0.36445523       0.71636002       0.52699342 </v>
   <v>       0.43834858       0.57217553       0.50432731 </v>
   <v>       0.46111484       0.48780618       0.51759558 </v>
   <v>       0.43271674       0.49774155       0.56677876 </v>
   <v>       0.42161158       0.53917242       0.56081490 </v>
   <v>       0.47805093       0.44718032       0.52222080 </v>
   <v>       0.54696676       0.42757690       0.55618958 </v>
   <v>       0.52512508       0.46075476       0.55682554 </v>
   <v>       0.42641937       0.61697629       0.49653192 </v>
   <v>       0.13376908       0.55648337       0.53383830 </v>
   <v>       0.02737680       0.53637880       0.53436752 </v>
   <v>       0.06344593       0.56542204       0.58579004 </v>
   <v>       0.11554162       0.57511439       0.58611173 </v>
   <v>       0.97001605       0.52033771       0.53270584 </v>
   <v>       0.87868431       0.45218476       0.56028909 </v>
   <v>       0.93340521       0.47343151       0.56650175 </v>
   <v>       0.19009959       0.56704102       0.53301612 </v>
   <v>       0.42394501       0.86496720       0.51950846 </v>
   <v>       0.50875507       0.97300426       0.50761421 </v>
   <v>       0.51228362       0.93627910       0.55014722 </v>
   <v>       0.47077544       0.88338171       0.55648954 </v>
   <v>       0.55025629       0.03031922       0.49787709 </v>
   <v>       0.58495773       0.12371887       0.52887658 </v>
   <v>       0.55186418       0.06926381       0.54125154 </v>
   <v>       0.37877602       0.80777179       0.52439169 </v>
   <v>       0.46688327       0.56289621       0.45495612 </v>
   <v>       0.47853947       0.52197426       0.46194230 </v>
   <v>       0.45407287       0.39853644       0.48687002 </v>
   <v>       0.47653695       0.36587716       0.48419857 </v>
   <v>       0.52358084       0.38005283       0.51865516 </v>
   <v>       0.54713343       0.34405650       0.51464021 </v>
   <v>       0.09826689       0.52741947       0.48222410 </v>
   <v>       0.04600505       0.51705755       0.48303409 </v>
   <v>       0.94880825       0.54463597       0.49215323 </v>
   <v>       0.89399537       0.52297331       0.48436884 </v>
   <v>       0.85815544       0.47636817       0.51833356 </v>
   <v>       0.79893654       0.45288837       0.50948678 </v>
   <v>       0.41966057       0.90122032       0.47722256 </v>
   <v>       0.46100633       0.95416323       0.47199686 </v>
   <v>       0.58319316       0.04903572       0.44125817 </v>
   <v>       0.61557653       0.10361168       0.42741250 </v>
   <v>       0.61699997       0.14171074       0.47129946 </v>
   <v>       0.65147267       0.20082212       0.45637508 </v>
   <v>       0.79288653       0.37812469       0.48388267 </v>
   <v>       0.58259787       0.20905484       0.46371222 </v>
   <v>       0.62447536       0.41480727       0.52070152 </v>
   <v>       0.21558132       0.65084930       0.53680406 </v>
   <v>       0.43598862       0.78267012       0.51140346 </v>
   <v>       0.34327554       0.56010364       0.50542735 </v>
   <v>       0.39932372       0.54479733       0.60062673 </v>
   <v>       0.58298041       0.43942608       0.58535028 </v>
   <v>       0.54486411       0.49836516       0.58461587 </v>
   <v>       0.53092554       0.31406527       0.55529620 </v>
   <v>       0.45212735       0.65077719       0.52966634 </v>
   <v>       0.43604576       0.63294454       0.44505727 </v>
   <v>       0.14140171       0.59762111       0.62776173 </v>
   <v>       0.85139250       0.41581988       0.58768635 </v>
   <v>       0.94868127       0.45337303       0.59794334 </v>
   <v>       0.78176596       0.46179893       0.55335419 </v>
   <v>       0.19621295       0.54547134       0.57443622 </v>
   <v>       0.19730925       0.55105665       0.48668145 </v>
   <v>       0.47620043       0.85699064       0.59033962 </v>
   <v>       0.58545233       0.15296114       0.56382505 </v>
   <v>       0.52637566       0.05602604       0.58541088 </v>
   <v>       0.68757754       0.21916085       0.48772451 </v>
   <v>       0.35494747       0.80232652       0.56975978 </v>
   <v>       0.35123271       0.79868527       0.48197341 </v>
   <v>       0.45652266       0.32933851       0.45441696 </v>
   <v>       0.48011017       0.58802776       0.41026667 </v>
   <v>       0.50110253       0.51553400       0.42317799 </v>
   <v>       0.53453697       0.32090811       0.46772744 </v>
   <v>       0.88015884       0.54320851       0.45101333 </v>
   <v>       0.11170343       0.51259113       0.44082183 </v>
   <v>       0.01872434       0.49390602       0.44274928 </v>
   <v>       0.79127633       0.47193074       0.46642858 </v>
   <v>       0.63909320       0.11538553       0.38160006 </v>
   <v>       0.38358666       0.88770409       0.44751146 </v>
   <v>       0.45706599       0.98175551       0.43853886 </v>
   <v>       0.66538170       0.20637315       0.40402389 </v>
   <v>       0.41288371       0.42056640       0.62661261 </v>
   <v>       0.39490605       0.47840050       0.67326955 </v>
   <v>       0.00491610       0.58773320       0.63627789 </v>
   <v>       0.07823201       0.60654214       0.69004788 </v>
   <v>       0.59846231       0.99914197       0.58453504 </v>
   <v>       0.56350901       0.91667900       0.62162094 </v>
   <v>       0.37674188       0.40126793       0.46519550 </v>
   <v>       0.38947196       0.34311100       0.40967563 </v>
   <v>       0.03162122       0.62086607       0.47323758 </v>
   <v>       0.96446021       0.60793819       0.40975949 </v>
   <v>       0.59776063       0.02674766       0.33469322 </v>
   <v>       0.57227133       0.96576854       0.41376074 </v>
  </varray>
 </structure>
</modeling>
