<?xml version="1.0" encoding="ISO-8859-1"?>
<modeling>
 <generator>
  <i name="program" type="string">vasp </i>
  <i name="version" type="string">5.4.4.18Apr17-6-g9f103f2a35  </i>
  <i name="subversion" type="string">(build Jun 07 2020 16:50:00) complex            parallel </i>
  <i name="platform" type="string">LinuxIFC </i>
  <i name="date" type="string">2023 03 05 </i>
  <i name="time" type="string">17:37:17 </i>
 </generator>
 <incar>
  <i type="string" name="SYSTEM">Simulation for cell shape cell volume r</i>
  <i type="int" name="ISTART">     1</i>
  <i type="string" name="PREC">high</i>
  <i type="string" name="ALGO">48</i>
  <i type="int" name="ICHARG">    11</i>
  <i type="int" name="NELM">   200</i>
  <i type="int" name="IBRION">    -1</i>
  <i name="EDIFF">      0.00001000</i>
  <i name="EDIFFG">     -0.01000000</i>
  <i type="int" name="NSW">     0</i>
  <i type="int" name="ISIF">     2</i>
  <i name="ENCUT">    500.00000000</i>
  <i name="POTIM">      0.30000000</i>
  <i type="string" name="LREAL">A</i>
  <i type="int" name="ISMEAR">     0</i>
  <i name="SIGMA">      0.01000000</i>
  <i type="int" name="NWRITE">     0</i>
  <i type="logical" name="LWAVE"> F  </i>
  <i type="logical" name="LCHARG"> F  </i>
  <v type="int" name="KPOINT_BSE">    -1     0     0     0</v>
  <i type="int" name="NELM">   200</i>
  <i type="string" name="GGA">PE</i>
 </incar>
 <structure name="primitive_cell" >
  <crystal>
   <varray name="basis" >
    <v>      21.68936397      -0.01746987       0.00000000 </v>
    <v>     -10.85997601      18.78548984       0.00000000 </v>
    <v>       0.00000000       0.00000000      20.00000000 </v>
   </varray>
   <i name="volume">   8145.11208429 </i>
   <varray name="rec_basis" >
    <v>       0.04612703       0.02666624       0.00000000 </v>
    <v>       0.00004290       0.05325737       0.00000000 </v>
    <v>       0.00000000       0.00000000       0.05000000 </v>
   </varray>
  </crystal>
  <varray name="positions" >
   <v>       0.42702503       0.36334830       0.47861062 </v>
   <v>       0.45700512       0.42054099       0.48685407 </v>
   <v>       0.42272373       0.45785135      -0.49623122 </v>
   <v>      -0.46828448       0.45746219       0.48046211 </v>
   <v>       0.48473954       0.30385584       0.45574727 </v>
   <v>       0.36476005       0.42909963      -0.49140818 </v>
   <v>      -0.42936086       0.42390426       0.46522403 </v>
   <v>      -0.45297580       0.35292338       0.45675631 </v>
   <v>      -0.42987276      -0.46847129       0.49109165 </v>
   <v>       0.46113772      -0.46807701      -0.48558665 </v>
   <v>      -0.37498795       0.45490379       0.46362610 </v>
   <v>      -0.46414769      -0.43116302      -0.49198713 </v>
   <v>      -0.39058324       0.33970284       0.45129196 </v>
   <v>      -0.37191295      -0.43972830       0.48623483 </v>
   <v>       0.42226592      -0.43446786      -0.47029838 </v>
   <v>       0.36789905      -0.46539301      -0.46853116 </v>
   <v>      -0.40558609       0.27202020       0.45055285 </v>
   <v>      -0.43414114      -0.37397598      -0.48376508 </v>
   <v>      -0.32445105       0.39680384       0.45149295 </v>
   <v>       0.44603455      -0.36340603      -0.46193015 </v>
   <v>      -0.46399888       0.16291493       0.46202474 </v>
   <v>      -0.34855381       0.26304086       0.45075351 </v>
   <v>      -0.27172564       0.38187064       0.45135847 </v>
   <v>      -0.49164234      -0.31443231      -0.46115053 </v>
   <v>       0.43067415       0.06058237       0.48575870 </v>
   <v>       0.31771022      -0.40701256      -0.45603637 </v>
   <v>       0.38379345      -0.34994549      -0.45625606 </v>
   <v>      -0.43293599       0.13971661       0.46401054 </v>
   <v>      -0.28081896       0.31582781       0.45056208 </v>
   <v>       0.17575726       0.48313106      -0.46028677 </v>
   <v>      -0.36183377       0.18742118       0.45628489 </v>
   <v>      -0.18247215      -0.49362400       0.45657003 </v>
   <v>      -0.19592841       0.44408466       0.45701775 </v>
   <v>       0.45945498       0.03149086       0.49067624 </v>
   <v>       0.26487821      -0.39223379      -0.45615204 </v>
   <v>      -0.46650899       0.06723691       0.47961099 </v>
   <v>       0.18910393      -0.45461925      -0.46164108 </v>
   <v>       0.39872742      -0.28226293      -0.45574546 </v>
   <v>      -0.31259974       0.17456547       0.45612561 </v>
   <v>      -0.14863025       0.42034524       0.46504670 </v>
   <v>      -0.17211389       0.36601662       0.46307868 </v>
   <v>       0.42222505      -0.04001849      -0.49180978 </v>
   <v>       0.05844059       0.42523324      -0.48385405 </v>
   <v>       0.36507195      -0.06727850      -0.48317806 </v>
   <v>       0.27389454      -0.32622626      -0.45566040 </v>
   <v>       0.34161498      -0.27338267      -0.45587632 </v>
   <v>      -0.42956352       0.02957499       0.48599957 </v>
   <v>       0.14173081      -0.43109652      -0.47058193 </v>
   <v>      -0.06525750      -0.43608134       0.47815808 </v>
   <v>      -0.37242188       0.05680542       0.47734435 </v>
   <v>       0.03128450       0.45519520      -0.49219068 </v>
   <v>       0.45683034      -0.17323166      -0.46783652 </v>
   <v>       0.16513725      -0.37676147      -0.46894230 </v>
   <v>      -0.07602576       0.45926013       0.48020906 </v>
   <v>       0.45920083      -0.07763349      -0.48531762 </v>
   <v>       0.06918436      -0.47011057      -0.48588303 </v>
   <v>      -0.46678854      -0.04192608      -0.49650594 </v>
   <v>      -0.03809743      -0.46603840       0.48645375 </v>
   <v>       0.35473348      -0.19777070      -0.46127995 </v>
   <v>       0.42573567      -0.15005153      -0.46954393 </v>
   <v>      -0.06975986       0.36294967       0.48610624 </v>
   <v>      -0.04040363       0.42089621       0.49088891 </v>
   <v>       0.30551360      -0.18489366      -0.46054059 </v>
   <v>      -0.43802784      -0.07104603      -0.49165544 </v>
   <v>       0.03358376      -0.43174258      -0.49665488 </v>
   <v>       0.06293770      -0.37379741      -0.49188705 </v>
  </varray>
 </structure>
 <varray name="primitive_index" >
  <v type="int" >        1 </v>
  <v type="int" >       48 </v>
  <v type="int" >       47 </v>
  <v type="int" >       58 </v>
  <v type="int" >       19 </v>
  <v type="int" >        2 </v>
  <v type="int" >       34 </v>
  <v type="int" >       40 </v>
  <v type="int" >       59 </v>
  <v type="int" >       49 </v>
  <v type="int" >       12 </v>
  <v type="int" >       60 </v>
  <v type="int" >       38 </v>
  <v type="int" >       10 </v>
  <v type="int" >       31 </v>
  <v type="int" >        3 </v>
  <v type="int" >       27 </v>
  <v type="int" >       11 </v>
  <v type="int" >       26 </v>
  <v type="int" >       45 </v>
  <v type="int" >       18 </v>
  <v type="int" >       56 </v>
  <v type="int" >       37 </v>
  <v type="int" >       22 </v>
  <v type="int" >       16 </v>
  <v type="int" >       29 </v>
  <v type="int" >       43 </v>
  <v type="int" >       36 </v>
  <v type="int" >       25 </v>
  <v type="int" >       24 </v>
  <v type="int" >       41 </v>
  <v type="int" >       21 </v>
  <v type="int" >       39 </v>
  <v type="int" >       65 </v>
  <v type="int" >       42 </v>
  <v type="int" >       64 </v>
  <v type="int" >       44 </v>
  <v type="int" >       30 </v>
  <v type="int" >       20 </v>
  <v type="int" >       35 </v>
  <v type="int" >       15 </v>
  <v type="int" >       66 </v>
  <v type="int" >       14 </v>
  <v type="int" >       17 </v>
  <v type="int" >       28 </v>
  <v type="int" >       57 </v>
  <v type="int" >       54 </v>
  <v type="int" >       32 </v>
  <v type="int" >        4 </v>
  <v type="int" >        7 </v>
  <v type="int" >       63 </v>
  <v type="int" >        9 </v>
  <v type="int" >        6 </v>
  <v type="int" >       61 </v>
  <v type="int" >       55 </v>
  <v type="int" >       52 </v>
  <v type="int" >       53 </v>
  <v type="int" >       51 </v>
  <v type="int" >       46 </v>
  <v type="int" >       33 </v>
  <v type="int" >       13 </v>
  <v type="int" >       62 </v>
  <v type="int" >       23 </v>
  <v type="int" >        8 </v>
  <v type="int" >       50 </v>
  <v type="int" >        5 </v>
 </varray>
 <kpoints>
  <generation param="listgenerated">
   <i name="divisions" type="int">      20 </i>
   <v>       0.00000000       0.00000000       0.00000000 </v>
   <v>       0.50000000       0.00000000       0.00000000 </v>
   <v>       0.33333333       0.33333333       0.00000000 </v>
   <v>       0.00000000       0.00000000       0.00000000 </v>
  </generation>
  <varray name="kpointlist" >
   <v>       0.00000000       0.00000000       0.00000000 </v>
   <v>       0.02631579       0.00000000       0.00000000 </v>
   <v>       0.05263158       0.00000000       0.00000000 </v>
   <v>       0.07894737       0.00000000       0.00000000 </v>
   <v>       0.10526316       0.00000000       0.00000000 </v>
   <v>       0.13157895       0.00000000       0.00000000 </v>
   <v>       0.15789474       0.00000000       0.00000000 </v>
   <v>       0.18421053       0.00000000       0.00000000 </v>
   <v>       0.21052632       0.00000000       0.00000000 </v>
   <v>       0.23684211       0.00000000       0.00000000 </v>
   <v>       0.26315789       0.00000000       0.00000000 </v>
   <v>       0.28947368       0.00000000       0.00000000 </v>
   <v>       0.31578947       0.00000000       0.00000000 </v>
   <v>       0.34210526       0.00000000       0.00000000 </v>
   <v>       0.36842105       0.00000000       0.00000000 </v>
   <v>       0.39473684       0.00000000       0.00000000 </v>
   <v>       0.42105263       0.00000000       0.00000000 </v>
   <v>       0.44736842       0.00000000       0.00000000 </v>
   <v>       0.47368421       0.00000000       0.00000000 </v>
   <v>       0.50000000       0.00000000       0.00000000 </v>
   <v>       0.50000000       0.00000000       0.00000000 </v>
   <v>       0.49122807       0.01754386       0.00000000 </v>
   <v>       0.48245614       0.03508772       0.00000000 </v>
   <v>       0.47368421       0.05263158       0.00000000 </v>
   <v>       0.46491228       0.07017544       0.00000000 </v>
   <v>       0.45614035       0.08771930       0.00000000 </v>
   <v>       0.44736842       0.10526316       0.00000000 </v>
   <v>       0.43859649       0.12280702       0.00000000 </v>
   <v>       0.42982456       0.14035088       0.00000000 </v>
   <v>       0.42105263       0.15789474       0.00000000 </v>
   <v>       0.41228070       0.17543860       0.00000000 </v>
   <v>       0.40350877       0.19298246       0.00000000 </v>
   <v>       0.39473684       0.21052632       0.00000000 </v>
   <v>       0.38596491       0.22807018       0.00000000 </v>
   <v>       0.37719298       0.24561404       0.00000000 </v>
   <v>       0.36842105       0.26315789       0.00000000 </v>
   <v>       0.35964912       0.28070175       0.00000000 </v>
   <v>       0.35087719       0.29824561       0.00000000 </v>
   <v>       0.34210526       0.31578947       0.00000000 </v>
   <v>       0.33333333       0.33333333       0.00000000 </v>
   <v>       0.33333333       0.33333333       0.00000000 </v>
   <v>       0.31578947       0.31578947       0.00000000 </v>
   <v>       0.29824561       0.29824561       0.00000000 </v>
   <v>       0.28070175       0.28070175       0.00000000 </v>
   <v>       0.26315789       0.26315789       0.00000000 </v>
   <v>       0.24561404       0.24561404       0.00000000 </v>
   <v>       0.22807018       0.22807018       0.00000000 </v>
   <v>       0.21052632       0.21052632       0.00000000 </v>
   <v>       0.19298246       0.19298246       0.00000000 </v>
   <v>       0.17543860       0.17543860       0.00000000 </v>
   <v>       0.15789474       0.15789474       0.00000000 </v>
   <v>       0.14035088       0.14035088       0.00000000 </v>
   <v>       0.12280702       0.12280702       0.00000000 </v>
   <v>       0.10526316       0.10526316       0.00000000 </v>
   <v>       0.08771930       0.08771930       0.00000000 </v>
   <v>       0.07017544       0.07017544       0.00000000 </v>
   <v>       0.05263158       0.05263158       0.00000000 </v>
   <v>       0.03508772       0.03508772       0.00000000 </v>
   <v>       0.01754386       0.01754386       0.00000000 </v>
   <v>       0.00000000       0.00000000       0.00000000 </v>
  </varray>
  <varray name="weights" >
   <v>       0.01666667 </v>
   <v>       0.01666667 </v>
   <v>       0.01666667 </v>
   <v>       0.01666667 </v>
   <v>       0.01666667 </v>
   <v>       0.01666667 </v>
   <v>       0.01666667 </v>
   <v>       0.01666667 </v>
   <v>       0.01666667 </v>
   <v>       0.01666667 </v>
   <v>       0.01666667 </v>
   <v>       0.01666667 </v>
   <v>       0.01666667 </v>
   <v>       0.01666667 </v>
   <v>       0.01666667 </v>
   <v>       0.01666667 </v>
   <v>       0.01666667 </v>
   <v>       0.01666667 </v>
   <v>       0.01666667 </v>
   <v>       0.01666667 </v>
   <v>       0.01666667 </v>
   <v>       0.01666667 </v>
   <v>       0.01666667 </v>
   <v>       0.01666667 </v>
   <v>       0.01666667 </v>
   <v>       0.01666667 </v>
   <v>       0.01666667 </v>
   <v>       0.01666667 </v>
   <v>       0.01666667 </v>
   <v>       0.01666667 </v>
   <v>       0.01666667 </v>
   <v>       0.01666667 </v>
   <v>       0.01666667 </v>
   <v>       0.01666667 </v>
   <v>       0.01666667 </v>
   <v>       0.01666667 </v>
   <v>       0.01666667 </v>
   <v>       0.01666667 </v>
   <v>       0.01666667 </v>
   <v>       0.01666667 </v>
   <v>       0.01666667 </v>
   <v>       0.01666667 </v>
   <v>       0.01666667 </v>
   <v>       0.01666667 </v>
   <v>       0.01666667 </v>
   <v>       0.01666667 </v>
   <v>       0.01666667 </v>
   <v>       0.01666667 </v>
   <v>       0.01666667 </v>
   <v>       0.01666667 </v>
   <v>       0.01666667 </v>
   <v>       0.01666667 </v>
   <v>       0.01666667 </v>
   <v>       0.01666667 </v>
   <v>       0.01666667 </v>
   <v>       0.01666667 </v>
   <v>       0.01666667 </v>
   <v>       0.01666667 </v>
   <v>       0.01666667 </v>
   <v>       0.01666667 </v>
  </varray>
 </kpoints>
 <parameters>
  <separator name="general" >
   <i type="string" name="SYSTEM">Simulation for cell shape cell volume r</i>
   <i type="logical" name="LCOMPAT"> F  </i>
  </separator>
  <separator name="electronic" >
   <i type="string" name="PREC">high</i>
   <i name="ENMAX">    500.00000000</i>
   <i name="ENAUG">    644.87300000</i>
   <i name="EDIFF">      0.00001000</i>
   <i type="int" name="IALGO">    38</i>
   <i type="int" name="IWAVPR">    10</i>
   <i type="int" name="NBANDS">   160</i>
   <i name="NELECT">    234.00000000</i>
   <i type="int" name="TURBO">     0</i>
   <i type="int" name="IRESTART">     0</i>
   <i type="int" name="NREBOOT">     0</i>
   <i type="int" name="NMIN">     0</i>
   <i name="EREF">      0.00000000</i>
   <separator name="electronic smearing" >
    <i type="int" name="ISMEAR">     0</i>
    <i name="SIGMA">      0.01000000</i>
    <i name="KSPACING">      0.50000000</i>
    <i type="logical" name="KGAMMA"> T  </i>
   </separator>
   <separator name="electronic projectors" >
    <i type="logical" name="LREAL"> T  </i>
    <v name="ROPT">     -0.00040000     -0.00040000     -0.00040000     -0.00040000</v>
    <i type="int" name="LMAXPAW">  -100</i>
    <i type="int" name="LMAXMIX">     2</i>
    <i type="logical" name="NLSPLINE"> F  </i>
   </separator>
   <separator name="electronic startup" >
    <i type="int" name="ISTART">     1</i>
    <i type="int" name="ICHARG">    11</i>
    <i type="int" name="INIWAV">     1</i>
   </separator>
   <separator name="electronic spin" >
    <i type="int" name="ISPIN">     1</i>
    <i type="logical" name="LNONCOLLINEAR"> F  </i>
    <v name="MAGMOM">      1.00000000      1.00000000      1.00000000      1.00000000      1.00000000      1.00000000      1.00000000      1.00000000      1.00000000      1.00000000      1.00000000      1.00000000      1.00000000      1.00000000      1.00000000      1.00000000      1.00000000      1.00000000      1.00000000      1.00000000
      1.00000000      1.00000000      1.00000000      1.00000000      1.00000000      1.00000000      1.00000000      1.00000000      1.00000000      1.00000000      1.00000000      1.00000000      1.00000000      1.00000000      1.00000000      1.00000000      1.00000000      1.00000000      1.00000000      1.00000000
      1.00000000      1.00000000      1.00000000      1.00000000      1.00000000      1.00000000      1.00000000      1.00000000      1.00000000      1.00000000      1.00000000      1.00000000      1.00000000      1.00000000      1.00000000      1.00000000      1.00000000      1.00000000      1.00000000      1.00000000
      1.00000000      1.00000000      1.00000000      1.00000000      1.00000000      1.00000000</v>
    <i name="NUPDOWN">     -1.00000000</i>
    <i type="logical" name="LSORBIT"> F  </i>
    <v name="SAXIS">      0.00000000      0.00000000      1.00000000</v>
    <i type="logical" name="LSPIRAL"> F  </i>
    <v name="QSPIRAL">      0.00000000      0.00000000      0.00000000</v>
    <i type="logical" name="LZEROZ"> F  </i>
   </separator>
   <separator name="electronic exchange-correlation" >
    <i type="logical" name="LASPH"> F  </i>
    <i type="logical" name="LMETAGGA"> F  </i>
   </separator>
   <separator name="electronic convergence" >
    <i type="int" name="NELM">   200</i>
    <i type="int" name="NELMDL">     0</i>
    <i type="int" name="NELMIN">     2</i>
    <i name="ENINI">    500.00000000</i>
    <separator name="electronic convergence detail" >
     <i type="logical" name="LDIAG"> T  </i>
     <i type="logical" name="LSUBROT"> F  </i>
     <i name="WEIMIN">      0.00000000</i>
     <i name="EBREAK">      0.00000002</i>
     <i name="DEPER">      0.30000000</i>
     <i type="int" name="NRMM">     4</i>
     <i name="TIME">      0.40000000</i>
    </separator>
   </separator>
   <separator name="electronic mixer" >
    <i name="AMIX">      0.40000000</i>
    <i name="BMIX">      1.00000000</i>
    <i name="AMIN">      0.10000000</i>
    <i name="AMIX_MAG">      1.60000000</i>
    <i name="BMIX_MAG">      1.00000000</i>
    <separator name="electronic mixer details" >
     <i type="int" name="IMIX">     4</i>
     <i type="logical" name="MIXFIRST"> F  </i>
     <i type="int" name="MAXMIX">   -45</i>
     <i name="WC">    100.00000000</i>
     <i type="int" name="INIMIX">     1</i>
     <i type="int" name="MIXPRE">     1</i>
     <i type="int" name="MREMOVE">     5</i>
    </separator>
   </separator>
   <separator name="electronic dipolcorrection" >
    <i type="logical" name="LDIPOL"> F  </i>
    <i type="logical" name="LMONO"> F  </i>
    <i type="int" name="IDIPOL">     0</i>
    <i name="EPSILON">      1.00000000</i>
    <v name="DIPOL">   -100.00000000   -100.00000000   -100.00000000</v>
    <i name="EFIELD">      0.00000000</i>
   </separator>
  </separator>
  <separator name="grids" >
   <i type="int" name="NGX">   160</i>
   <i type="int" name="NGY">   160</i>
   <i type="int" name="NGZ">   150</i>
   <i type="int" name="NGXF">   240</i>
   <i type="int" name="NGYF">   240</i>
   <i type="int" name="NGZF">   224</i>
   <i type="logical" name="ADDGRID"> F  </i>
  </separator>
  <separator name="ionic" >
   <i type="int" name="NSW">     0</i>
   <i type="int" name="IBRION">    -1</i>
   <i type="int" name="MDALGO">     0</i>
   <i type="int" name="ISIF">     2</i>
   <i name="PSTRESS">      0.00000000</i>
   <i name="EDIFFG">     -0.01000000</i>
   <i type="int" name="NFREE">     0</i>
   <i name="POTIM">      0.30000000</i>
   <i name="SMASS">     -3.00000000</i>
   <i name="SCALEE">      1.00000000</i>
  </separator>
  <separator name="ionic md" >
   <i name="TEBEG">      0.00010000</i>
   <i name="TEEND">      0.00010000</i>
   <i type="int" name="NBLOCK">     1</i>
   <i type="int" name="KBLOCK">     1</i>
   <i type="int" name="NPACO">   256</i>
   <i name="APACO">     16.00000000</i>
  </separator>
  <separator name="symmetry" >
   <i type="int" name="ISYM">     2</i>
   <i name="SYMPREC">      0.00001000</i>
  </separator>
  <separator name="dos" >
   <i type="int" name="LORBIT">     0</i>
   <v name="RWIGS">     -1.00000000     -1.00000000     -1.00000000     -1.00000000</v>
   <i type="int" name="NEDOS">   301</i>
   <i name="EMIN">     10.00000000</i>
   <i name="EMAX">    -10.00000000</i>
   <i name="EFERMI">      0.00000000</i>
  </separator>
  <separator name="writing" >
   <i type="int" name="NWRITE">     0</i>
   <i type="logical" name="LWAVE"> F  </i>
   <i type="logical" name="LDOWNSAMPLE"> F  </i>
   <i type="logical" name="LCHARG"> F  </i>
   <i type="logical" name="LPARD"> F  </i>
   <i type="logical" name="LVTOT"> F  </i>
   <i type="logical" name="LVHAR"> F  </i>
   <i type="logical" name="LELF"> F  </i>
   <i type="logical" name="LOPTICS"> F  </i>
   <v name="STM">      0.00000000      0.00000000      0.00000000      0.00000000      0.00000000      0.00000000      0.00000000</v>
  </separator>
  <separator name="performance" >
   <i type="int" name="NPAR">    16</i>
   <i type="int" name="NSIM">     4</i>
   <i type="int" name="NBLK">    -1</i>
   <i type="logical" name="LPLANE"> T  </i>
   <i type="logical" name="LSCALAPACK"> T  </i>
   <i type="logical" name="LSCAAWARE"> F  </i>
   <i type="logical" name="LSCALU"> F  </i>
   <i type="logical" name="LASYNC"> F  </i>
   <i type="logical" name="LORBITALREAL"> F  </i>
  </separator>
  <separator name="miscellaneous" >
   <i type="int" name="IDIOT">     3</i>
   <i type="int" name="ISPECIAL">     0</i>
   <i type="logical" name="LMUSIC"> F  </i>
   <v name="POMASS">      1.00000000     16.00000000     14.00100000     12.01100000</v>
   <v name="DARWINR">      0.00000000      0.00000000      0.00000000      0.00000000</v>
   <v name="DARWINV">      1.00000000      1.00000000      1.00000000      1.00000000</v>
   <i type="logical" name="LCORR"> T  </i>
  </separator>
  <i type="logical" name="GGA_COMPAT"> T  </i>
  <i type="logical" name="LBERRY"> F  </i>
  <i type="int" name="ICORELEVEL">     0</i>
  <i type="logical" name="LDAU"> F  </i>
  <i type="int" name="I_CONSTRAINED_M">     0</i>
  <separator name="electronic exchange-correlation" >
   <i type="string" name="GGA">PE</i>
   <i type="int" name="VOSKOWN">     0</i>
   <i type="logical" name="LHFCALC"> F  </i>
   <i type="string" name="PRECFOCK"></i>
   <i type="logical" name="LSYMGRAD"> F  </i>
   <i type="logical" name="LHFONE"> F  </i>
   <i type="logical" name="LRHFCALC"> F  </i>
   <i type="logical" name="LTHOMAS"> F  </i>
   <i type="logical" name="LMODELHF"> F  </i>
   <i name="ENCUT4O">     -1.00000000</i>
   <i type="int" name="EXXOEP">     0</i>
   <i type="int" name="FOURORBIT">     0</i>
   <i name="AEXX">      0.00000000</i>
   <i name="HFALPHA">      0.00000000</i>
   <i name="MCALPHA">      0.00000000</i>
   <i name="ALDAX">      1.00000000</i>
   <i name="AGGAX">      1.00000000</i>
   <i name="ALDAC">      1.00000000</i>
   <i name="AGGAC">      1.00000000</i>
   <i type="int" name="NKREDX">     1</i>
   <i type="int" name="NKREDY">     1</i>
   <i type="int" name="NKREDZ">     1</i>
   <i type="logical" name="SHIFTRED"> F  </i>
   <i type="logical" name="ODDONLY"> F  </i>
   <i type="logical" name="EVENONLY"> F  </i>
   <i type="int" name="LMAXFOCK">     0</i>
   <i type="int" name="NMAXFOCKAE">     0</i>
   <i type="logical" name="LFOCKAEDFT"> F  </i>
   <i name="HFSCREEN">      0.00000000</i>
   <i name="HFSCREENC">      0.00000000</i>
   <i type="int" name="NBANDSGWLOW">     0</i>
  </separator>
  <separator name="vdW DFT" >
   <i type="logical" name="LUSE_VDW"> F  </i>
   <i name="Zab_VDW">     -0.84910000</i>
   <i name="PARAM1">      0.12340000</i>
   <i name="PARAM2">      1.00000000</i>
   <i name="PARAM3">      0.00000000</i>
  </separator>
  <separator name="model GW" >
   <i type="int" name="MODEL_GW">     0</i>
   <i name="MODEL_EPS0">     74.04647349</i>
   <i name="MODEL_ALPHA">      1.00000000</i>
  </separator>
  <separator name="linear response parameters" >
   <i type="logical" name="LEPSILON"> F  </i>
   <i type="logical" name="LRPA"> F  </i>
   <i type="logical" name="LNABLA"> F  </i>
   <i type="logical" name="LVEL"> F  </i>
   <i type="int" name="KINTER">     0</i>
   <i name="CSHIFT">      0.10000000</i>
   <i name="OMEGAMAX">     -1.00000000</i>
   <i name="DEG_THRESHOLD">      0.00200000</i>
   <i name="RTIME">     -0.10000000</i>
   <i name="WPLASMAI">      0.00000000</i>
   <v name="DFIELD">      0.00000000      0.00000000      0.00000000</v>
   <v name="WPLASMA">      0.00000000      0.00000000      0.00000000      0.00000000      0.00000000      0.00000000      0.00000000      0.00000000      0.00000000</v>
  </separator>
  <separator name="orbital magnetization" >
   <i type="logical" name="NUCIND"> F  </i>
   <v name="MAGPOS">      0.00000000      0.00000000      0.00000000</v>
   <i type="logical" name="LNICSALL"> T  </i>
   <i type="logical" name="ORBITALMAG"> F  </i>
   <i type="logical" name="LMAGBLOCH"> F  </i>
   <i type="logical" name="LCHIMAG"> F  </i>
   <i type="logical" name="LGAUGE"> T  </i>
   <i type="int" name="MAGATOM">     0</i>
   <v name="MAGDIPOL">      0.00000000      0.00000000      0.00000000</v>
   <v name="AVECCONST">      0.00000000      0.00000000      0.00000000</v>
  </separator>
  <separator name="response functions" >
   <i type="logical" name="LADDER"> F  </i>
   <i type="logical" name="LRPAFORCE"> F  </i>
   <i type="logical" name="LFXC"> F  </i>
   <i type="logical" name="LHARTREE"> T  </i>
   <i type="int" name="IBSE">     0</i>
   <v type="int" name="KPOINT">    -1     0     0     0</v>
   <i type="logical" name="LTCTE"> F  </i>
   <i type="logical" name="LTETE"> F  </i>
   <i type="logical" name="LTRIPLET"> F  </i>
   <i type="logical" name="LFXCEPS"> F  </i>
   <i type="logical" name="LFXHEG"> F  </i>
   <i type="int" name="NATURALO">     2</i>
   <i type="logical" name="L2ORDER"> F  </i>
   <i type="logical" name="LMP2LT"> F  </i>
   <i type="logical" name="LUSEW"> F  </i>
   <i name="ENCUTGW">     -2.00000000</i>
   <i name="ENCUTGWSOFT">     -2.00000000</i>
   <i name="ENCUTLF">     -1.00000000</i>
   <i type="int" name="LMAXMP2">    -1</i>
   <i name="SCISSOR">      0.00000000</i>
   <i type="int" name="NOMEGA">     0</i>
   <i type="int" name="NOMEGAR">     0</i>
   <i type="int" name="NBANDSGW">    -1</i>
   <i type="int" name="NBANDSO">    -1</i>
   <i type="int" name="NBANDSV">    -1</i>
   <i type="int" name="NELM">   200</i>
   <i type="int" name="NELMHF">     1</i>
   <i type="int" name="DIM">     3</i>
   <i type="int" name="ANTIRES">     0</i>
   <i name="OMEGAMAX">    -30.00000000</i>
   <i name="OMEGAMIN">    -30.00000000</i>
   <i name="OMEGATL">   -200.00000000</i>
   <i type="int" name="OMEGAGRID">   140</i>
   <i name="CSHIFT">     -0.10000000</i>
   <i type="logical" name="SELFENERGY"> F  </i>
   <i type="logical" name="LSPECTRAL"> F  </i>
   <i type="logical" name="LSPECTRALGW"> F  </i>
   <i type="logical" name="LSINGLES"> F  </i>
   <i type="logical" name="LFERMIGW"> F  </i>
   <i type="logical" name="ODDONLYGW"> F  </i>
   <i type="logical" name="EVENONLYGW"> F  </i>
   <i type="int" name="NKREDLFX">     1</i>
   <i type="int" name="NKREDLFY">     1</i>
   <i type="int" name="NKREDLFZ">     1</i>
   <i type="int" name="MAXMEM">  2800</i>
   <i type="int" name="TELESCOPE">     0</i>
   <i type="int" name="TAUPAR">     1</i>
   <i type="int" name="OMEGAPAR">    -1</i>
   <i name="LAMBDA">      1.00000000</i>
  </separator>
  <separator name="External order field" >
   <i name="OFIELD_KAPPA">      0.00000000</i>
   <v name="OFIELD_K">      0.00000000      0.00000000      0.00000000</v>
   <i name="OFIELD_Q6_NEAR">      0.00000000</i>
   <i name="OFIELD_Q6_FAR">      0.00000000</i>
   <i name="OFIELD_A">      0.00000000</i>
  </separator>
  <separator name="solvation model" >
   <i type="logical" name="LSOL"> F  </i>
  </separator>
 </parameters>
 <atominfo>
  <atoms>      66 </atoms>
  <types>       4 </types>
  <array name="atoms" >
   <dimension dim="1">ion</dimension>
   <field type="string">element</field>
   <field type="int">atomtype</field>
   <set>
    <rc><c>H </c><c>   1</c></rc>
    <rc><c>H </c><c>   1</c></rc>
    <rc><c>H </c><c>   1</c></rc>
    <rc><c>H </c><c>   1</c></rc>
    <rc><c>H </c><c>   1</c></rc>
    <rc><c>H </c><c>   1</c></rc>
    <rc><c>H </c><c>   1</c></rc>
    <rc><c>H </c><c>   1</c></rc>
    <rc><c>H </c><c>   1</c></rc>
    <rc><c>H </c><c>   1</c></rc>
    <rc><c>H </c><c>   1</c></rc>
    <rc><c>H </c><c>   1</c></rc>
    <rc><c>H </c><c>   1</c></rc>
    <rc><c>H </c><c>   1</c></rc>
    <rc><c>H </c><c>   1</c></rc>
    <rc><c>H </c><c>   1</c></rc>
    <rc><c>H </c><c>   1</c></rc>
    <rc><c>H </c><c>   1</c></rc>
    <rc><c>O </c><c>   2</c></rc>
    <rc><c>O </c><c>   2</c></rc>
    <rc><c>O </c><c>   2</c></rc>
    <rc><c>O </c><c>   2</c></rc>
    <rc><c>O </c><c>   2</c></rc>
    <rc><c>O </c><c>   2</c></rc>
    <rc><c>N </c><c>   3</c></rc>
    <rc><c>N </c><c>   3</c></rc>
    <rc><c>N </c><c>   3</c></rc>
    <rc><c>N </c><c>   3</c></rc>
    <rc><c>N </c><c>   3</c></rc>
    <rc><c>N </c><c>   3</c></rc>
    <rc><c>N </c><c>   3</c></rc>
    <rc><c>N </c><c>   3</c></rc>
    <rc><c>N </c><c>   3</c></rc>
    <rc><c>N </c><c>   3</c></rc>
    <rc><c>N </c><c>   3</c></rc>
    <rc><c>N </c><c>   3</c></rc>
    <rc><c>C </c><c>   4</c></rc>
    <rc><c>C </c><c>   4</c></rc>
    <rc><c>C </c><c>   4</c></rc>
    <rc><c>C </c><c>   4</c></rc>
    <rc><c>C </c><c>   4</c></rc>
    <rc><c>C </c><c>   4</c></rc>
    <rc><c>C </c><c>   4</c></rc>
    <rc><c>C </c><c>   4</c></rc>
    <rc><c>C </c><c>   4</c></rc>
    <rc><c>C </c><c>   4</c></rc>
    <rc><c>C </c><c>   4</c></rc>
    <rc><c>C </c><c>   4</c></rc>
    <rc><c>C </c><c>   4</c></rc>
    <rc><c>C </c><c>   4</c></rc>
    <rc><c>C </c><c>   4</c></rc>
    <rc><c>C </c><c>   4</c></rc>
    <rc><c>C </c><c>   4</c></rc>
    <rc><c>C </c><c>   4</c></rc>
    <rc><c>C </c><c>   4</c></rc>
    <rc><c>C </c><c>   4</c></rc>
    <rc><c>C </c><c>   4</c></rc>
    <rc><c>C </c><c>   4</c></rc>
    <rc><c>C </c><c>   4</c></rc>
    <rc><c>C </c><c>   4</c></rc>
    <rc><c>C </c><c>   4</c></rc>
    <rc><c>C </c><c>   4</c></rc>
    <rc><c>C </c><c>   4</c></rc>
    <rc><c>C </c><c>   4</c></rc>
    <rc><c>C </c><c>   4</c></rc>
    <rc><c>C </c><c>   4</c></rc>
   </set>
  </array>
  <array name="atomtypes" >
   <dimension dim="1">type</dimension>
   <field type="int">atomspertype</field>
   <field type="string">element</field>
   <field>mass</field>
   <field>valence</field>
   <field type="string">pseudopotential</field>
   <set>
    <rc><c>  18</c><c>H </c><c>      1.00000000</c><c>      1.00000000</c><c>  PAW_PBE H 15Jun2001                   </c></rc>
    <rc><c>   6</c><c>O </c><c>     16.00000000</c><c>      6.00000000</c><c>  PAW_PBE O 08Apr2002                   </c></rc>
    <rc><c>  12</c><c>N </c><c>     14.00100000</c><c>      5.00000000</c><c>  PAW_PBE N 08Apr2002                   </c></rc>
    <rc><c>  30</c><c>C </c><c>     12.01100000</c><c>      4.00000000</c><c>  PAW_PBE C 08Apr2002                   </c></rc>
   </set>
  </array>
 </atominfo>
 <structure name="initialpos" >
  <crystal>
   <varray name="basis" >
    <v>      21.68936397      -0.01746987       0.00000000 </v>
    <v>     -10.85997601      18.78548984       0.00000000 </v>
    <v>       0.00000000       0.00000000      20.00000000 </v>
   </varray>
   <i name="volume">   8145.11208429 </i>
   <varray name="rec_basis" >
    <v>       0.04612703       0.02666624       0.00000000 </v>
    <v>       0.00004290       0.05325737       0.00000000 </v>
    <v>       0.00000000       0.00000000       0.05000000 </v>
   </varray>
  </crystal>
  <varray name="positions" >
   <v>       0.42702503       0.36334830       0.47861062 </v>
   <v>       0.36476005       0.42909963       0.50859182 </v>
   <v>       0.36789905       0.53460699       0.53146884 </v>
   <v>       0.93474250       0.56391866       0.47815808 </v>
   <v>       0.06293770       0.62620259       0.50811295 </v>
   <v>       0.16513725       0.62323853       0.53105770 </v>
   <v>       0.62757812       0.05680542       0.47734435 </v>
   <v>       0.56197216       0.92895397       0.50834456 </v>
   <v>       0.45683034       0.82676834       0.53216348 </v>
   <v>       0.62808705       0.56027170       0.48623483 </v>
   <v>       0.56585886       0.62602402       0.51623492 </v>
   <v>       0.62501205       0.45490379       0.46362610 </v>
   <v>       0.93024014       0.36294967       0.48610624 </v>
   <v>       0.05844059       0.42523324       0.51614595 </v>
   <v>       0.82788611       0.36601662       0.46307868 </v>
   <v>       0.43067415       0.06058237       0.48575870 </v>
   <v>       0.36507195       0.93272150       0.51682194 </v>
   <v>       0.53600112       0.16291493       0.46202474 </v>
   <v>       0.48473954       0.30385584       0.45574727 </v>
   <v>       0.68740026       0.17456547       0.45612561 </v>
   <v>       0.81752785       0.50637600       0.45657003 </v>
   <v>       0.50835766       0.68556769       0.53884947 </v>
   <v>       0.30551360       0.81510634       0.53945941 </v>
   <v>       0.17575726       0.48313106       0.53971323 </v>
   <v>       0.71918104       0.31582781       0.45056208 </v>
   <v>       0.67554895       0.39680384       0.45149295 </v>
   <v>       0.59441391       0.27202020       0.45055285 </v>
   <v>       0.27389454       0.67377374       0.54433960 </v>
   <v>       0.31771022       0.59298744       0.54396363 </v>
   <v>       0.39872742       0.71773707       0.54425454 </v>
   <v>       0.42226592       0.56553214       0.52970162 </v>
   <v>       0.14173081       0.56890348       0.52941807 </v>
   <v>       0.42573567       0.84994847       0.53045607 </v>
   <v>       0.57063914       0.42390426       0.46522403 </v>
   <v>       0.85136975       0.42034524       0.46504670 </v>
   <v>       0.56706401       0.13971661       0.46401054 </v>
   <v>       0.72827436       0.38187064       0.45135847 </v>
   <v>       0.60941676       0.33970284       0.45129196 </v>
   <v>       0.80407159       0.44408466       0.45701775 </v>
   <v>       0.54702420       0.35292338       0.45675631 </v>
   <v>       0.63816623       0.18742118       0.45628489 </v>
   <v>       0.26487821       0.60776621       0.54384796 </v>
   <v>       0.38379345       0.65005451       0.54374394 </v>
   <v>       0.18910393       0.54538075       0.53835892 </v>
   <v>       0.44603455       0.63659397       0.53806985 </v>
   <v>       0.35473348       0.80222930       0.53872005 </v>
   <v>       0.42272373       0.45785135       0.50376878 </v>
   <v>       0.45700512       0.42054099       0.48685407 </v>
   <v>       0.46113772       0.53192299       0.51441335 </v>
   <v>       0.03358376       0.56825742       0.50334512 </v>
   <v>       0.96190257       0.53396160       0.48645375 </v>
   <v>       0.06918436       0.52988943       0.51411697 </v>
   <v>       0.53321146       0.95807392       0.50349406 </v>
   <v>       0.57043648       0.02957499       0.48599957 </v>
   <v>       0.45920083       0.92236651       0.51468238 </v>
   <v>       0.65144619       0.26304086       0.45075351 </v>
   <v>       0.34161498       0.72661733       0.54412368 </v>
   <v>       0.53171552       0.45746219       0.48046211 </v>
   <v>       0.57012724       0.53152871       0.49109165 </v>
   <v>       0.53585231       0.56883698       0.50801287 </v>
   <v>       0.92397424       0.45926013       0.48020906 </v>
   <v>       0.95959637       0.42089621       0.49088891 </v>
   <v>       0.03128450       0.45519520       0.50780932 </v>
   <v>       0.53349101       0.06723691       0.47961099 </v>
   <v>       0.45945498       0.03149086       0.49067624 </v>
   <v>       0.42222505       0.95998151       0.50819022 </v>
  </varray>
 </structure>
 <calculation>
  <scstep>
   <time name="dav">   99.44  100.46</time>
   <time name="total">   99.60  100.63</time>
   <energy>
    <i name="alphaZ">     30.38068803 </i>
    <i name="ewald">  25854.94311690 </i>
    <i name="hartreedc"> -34420.32795836 </i>
    <i name="XCdc">    877.09492914 </i>
    <i name="pawpsdc">  22335.23195288 </i>
    <i name="pawaedc"> -22385.11377617 </i>
    <i name="eentropy">     -0.00000000 </i>
    <i name="bandstr">  -3175.92211805 </i>
    <i name="atom">  10407.76518907 </i>
    <i name="e_fr_energy">   -475.94797657 </i>
    <i name="e_wo_entrp">   -475.94797657 </i>
    <i name="e_0_energy">   -475.94797657 </i>
   </energy>
  </scstep>
  <scstep>
   <time name="dav">  110.12  111.26</time>
   <time name="total">  110.13  111.27</time>
   <energy>
    <i name="e_fr_energy">   -476.57314937 </i>
    <i name="e_wo_entrp">   -476.57314937 </i>
    <i name="e_0_energy">   -476.57314937 </i>
   </energy>
  </scstep>
  <scstep>
   <time name="dav">  119.46  120.69</time>
   <time name="total">  119.46  120.69</time>
   <energy>
    <i name="e_fr_energy">   -476.58668393 </i>
    <i name="e_wo_entrp">   -476.58668393 </i>
    <i name="e_0_energy">   -476.58668393 </i>
   </energy>
  </scstep>
  <scstep>
   <time name="dav">  108.39  109.52</time>
   <time name="total">  108.40  109.53</time>
   <energy>
    <i name="e_fr_energy">   -476.58706469 </i>
    <i name="e_wo_entrp">   -476.58706469 </i>
    <i name="e_0_energy">   -476.58706469 </i>
   </energy>
  </scstep>
  <scstep>
   <time name="dav">  102.22  103.36</time>
   <time name="total">  102.23  103.37</time>
   <energy>
    <i name="e_fr_energy">   -476.58708404 </i>
    <i name="e_wo_entrp">   -476.58708404 </i>
    <i name="e_0_energy">   -476.58708404 </i>
   </energy>
  </scstep>
  <scstep>
   <time name="dav">   85.40   86.23</time>
   <time name="total">   85.40   86.23</time>
   <energy>
    <i name="alphaZ">     30.38068803 </i>
    <i name="ewald">  25854.94311690 </i>
    <i name="hartreedc"> -34420.32795836 </i>
    <i name="XCdc">    877.09492914 </i>
    <i name="pawpsdc">  22335.23195288 </i>
    <i name="pawaedc"> -22385.11377617 </i>
    <i name="eentropy">     -0.00000000 </i>
    <i name="bandstr">  -3176.56122599 </i>
    <i name="atom">  10407.76518907 </i>
    <i name="e_fr_energy">   -476.58708452 </i>
    <i name="e_wo_entrp">   -476.58708452 </i>
    <i name="e_0_energy">   -476.58708452 </i>
   </energy>
  </scstep>
  <structure>
   <crystal>
    <varray name="basis" >
     <v>      21.68936397      -0.01746987       0.00000000 </v>
     <v>     -10.85997601      18.78548984       0.00000000 </v>
     <v>       0.00000000       0.00000000      20.00000000 </v>
    </varray>
    <i name="volume">   8145.11208429 </i>
    <varray name="rec_basis" >
     <v>       0.04612703       0.02666624       0.00000000 </v>
     <v>       0.00004290       0.05325737       0.00000000 </v>
     <v>       0.00000000       0.00000000       0.05000000 </v>
    </varray>
   </crystal>
   <varray name="positions" >
    <v>       0.42702503       0.36334830       0.47861062 </v>
    <v>       0.36476005       0.42909963       0.50859182 </v>
    <v>       0.36789905       0.53460699       0.53146884 </v>
    <v>       0.93474250       0.56391866       0.47815808 </v>
    <v>       0.06293770       0.62620259       0.50811295 </v>
    <v>       0.16513725       0.62323853       0.53105770 </v>
    <v>       0.62757812       0.05680542       0.47734435 </v>
    <v>       0.56197216       0.92895397       0.50834456 </v>
    <v>       0.45683034       0.82676834       0.53216348 </v>
    <v>       0.62808705       0.56027170       0.48623483 </v>
    <v>       0.56585886       0.62602402       0.51623492 </v>
    <v>       0.62501205       0.45490379       0.46362610 </v>
    <v>       0.93024014       0.36294967       0.48610624 </v>
    <v>       0.05844059       0.42523324       0.51614595 </v>
    <v>       0.82788611       0.36601662       0.46307868 </v>
    <v>       0.43067415       0.06058237       0.48575870 </v>
    <v>       0.36507195       0.93272150       0.51682194 </v>
    <v>       0.53600112       0.16291493       0.46202474 </v>
    <v>       0.48473954       0.30385584       0.45574727 </v>
    <v>       0.68740026       0.17456547       0.45612561 </v>
    <v>       0.81752785       0.50637600       0.45657003 </v>
    <v>       0.50835766       0.68556769       0.53884947 </v>
    <v>       0.30551360       0.81510634       0.53945941 </v>
    <v>       0.17575726       0.48313106       0.53971323 </v>
    <v>       0.71918104       0.31582781       0.45056208 </v>
    <v>       0.67554895       0.39680384       0.45149295 </v>
    <v>       0.59441391       0.27202020       0.45055285 </v>
    <v>       0.27389454       0.67377374       0.54433960 </v>
    <v>       0.31771022       0.59298744       0.54396363 </v>
    <v>       0.39872742       0.71773707       0.54425454 </v>
    <v>       0.42226592       0.56553214       0.52970162 </v>
    <v>       0.14173081       0.56890348       0.52941807 </v>
    <v>       0.42573567       0.84994847       0.53045607 </v>
    <v>       0.57063914       0.42390426       0.46522403 </v>
    <v>       0.85136975       0.42034524       0.46504670 </v>
    <v>       0.56706401       0.13971661       0.46401054 </v>
    <v>       0.72827436       0.38187064       0.45135847 </v>
    <v>       0.60941676       0.33970284       0.45129196 </v>
    <v>       0.80407159       0.44408466       0.45701775 </v>
    <v>       0.54702420       0.35292338       0.45675631 </v>
    <v>       0.63816623       0.18742118       0.45628489 </v>
    <v>       0.26487821       0.60776621       0.54384796 </v>
    <v>       0.38379345       0.65005451       0.54374394 </v>
    <v>       0.18910393       0.54538075       0.53835892 </v>
    <v>       0.44603455       0.63659397       0.53806985 </v>
    <v>       0.35473348       0.80222930       0.53872005 </v>
    <v>       0.42272373       0.45785135       0.50376878 </v>
    <v>       0.45700512       0.42054099       0.48685407 </v>
    <v>       0.46113772       0.53192299       0.51441335 </v>
    <v>       0.03358376       0.56825742       0.50334512 </v>
    <v>       0.96190257       0.53396160       0.48645375 </v>
    <v>       0.06918436       0.52988943       0.51411697 </v>
    <v>       0.53321146       0.95807392       0.50349406 </v>
    <v>       0.57043648       0.02957499       0.48599957 </v>
    <v>       0.45920083       0.92236651       0.51468238 </v>
    <v>       0.65144619       0.26304086       0.45075351 </v>
    <v>       0.34161498       0.72661733       0.54412368 </v>
    <v>       0.53171552       0.45746219       0.48046211 </v>
    <v>       0.57012724       0.53152871       0.49109165 </v>
    <v>       0.53585231       0.56883698       0.50801287 </v>
    <v>       0.92397424       0.45926013       0.48020906 </v>
    <v>       0.95959637       0.42089621       0.49088891 </v>
    <v>       0.03128450       0.45519520       0.50780932 </v>
    <v>       0.53349101       0.06723691       0.47961099 </v>
    <v>       0.45945498       0.03149086       0.49067624 </v>
    <v>       0.42222505       0.95998151       0.50819022 </v>
   </varray>
  </structure>
  <varray name="forces" >
   <v>      -0.00125211      -0.00036891      -0.00254176 </v>
   <v>      -0.00281915      -0.00135805      -0.00235720 </v>
   <v>      -0.00293654      -0.00139916      -0.00126160 </v>
   <v>      -0.00033787      -0.00052894      -0.00091979 </v>
   <v>      -0.00081440       0.00188690      -0.00130644 </v>
   <v>      -0.00124615       0.00268723      -0.00083157 </v>
   <v>       0.00067427       0.00017894       0.00028650 </v>
   <v>       0.00145938      -0.00180412      -0.00263141 </v>
   <v>       0.00264506      -0.00078614      -0.00321035 </v>
   <v>       0.00125354       0.00057279       0.00179018 </v>
   <v>      -0.00068000       0.00134092       0.00211991 </v>
   <v>       0.00224781       0.00127626       0.00186153 </v>
   <v>       0.00144280      -0.00157154       0.00171800 </v>
   <v>      -0.00013871       0.00079564       0.00099324 </v>
   <v>      -0.00002121      -0.00621560       0.00202832 </v>
   <v>      -0.00126548       0.00202470       0.00179361 </v>
   <v>      -0.00008910       0.00102162      -0.00132505 </v>
   <v>      -0.00111476       0.00227342       0.00410927 </v>
   <v>      -0.00119861      -0.00023509      -0.00357776 </v>
   <v>       0.00380445      -0.00210930      -0.00115621 </v>
   <v>       0.00252799       0.00142400       0.00102986 </v>
   <v>       0.00067318       0.00130651       0.00039282 </v>
   <v>      -0.00051690       0.00342159      -0.00069723 </v>
   <v>      -0.00209876       0.00499829      -0.00067674 </v>
   <v>      -0.00111150      -0.00146222       0.00352618 </v>
   <v>      -0.00620778      -0.00142538      -0.00162679 </v>
   <v>      -0.00506478       0.00396244      -0.00081596 </v>
   <v>      -0.00348937       0.00576882      -0.00182603 </v>
   <v>       0.00137885      -0.00432020       0.00224872 </v>
   <v>       0.00646838      -0.00319876       0.00060378 </v>
   <v>       0.00259754      -0.00258789       0.00122382 </v>
   <v>      -0.00100598      -0.00033917      -0.00154870 </v>
   <v>       0.00453337       0.00383662      -0.00651164 </v>
   <v>      -0.00190407       0.00273271       0.00127482 </v>
   <v>       0.00639654       0.00446425       0.00419977 </v>
   <v>      -0.00283580      -0.00268742       0.00315516 </v>
   <v>       0.00571120       0.00075234       0.00324659 </v>
   <v>       0.00393190      -0.00134306       0.00121395 </v>
   <v>      -0.00725963      -0.00260021      -0.00087292 </v>
   <v>       0.00147312      -0.00427150      -0.00188398 </v>
   <v>       0.00112455       0.00520180       0.00044150 </v>
   <v>      -0.00320637      -0.00271511      -0.00003166 </v>
   <v>      -0.00338355       0.00378039      -0.00088450 </v>
   <v>       0.00896071      -0.00501492       0.00153340 </v>
   <v>      -0.00195085       0.00313600       0.00103315 </v>
   <v>      -0.00165975      -0.00765900      -0.00018807 </v>
   <v>       0.00066120      -0.00453285      -0.00328423 </v>
   <v>      -0.00427652      -0.00338031      -0.00190353 </v>
   <v>      -0.00345234       0.00209846       0.00005644 </v>
   <v>      -0.00603862      -0.00123670      -0.00260154 </v>
   <v>       0.00328812       0.00467221       0.00039535 </v>
   <v>       0.00018410      -0.00104846      -0.00106999 </v>
   <v>       0.00301801       0.00309959      -0.00223281 </v>
   <v>       0.00331047      -0.00108077       0.00132826 </v>
   <v>       0.00069560      -0.00372116      -0.00139308 </v>
   <v>       0.00272007      -0.00010874       0.00535951 </v>
   <v>      -0.00426427       0.00574621      -0.00158557 </v>
   <v>       0.00013570      -0.00045076       0.00057980 </v>
   <v>      -0.00084457       0.00297500       0.00106584 </v>
   <v>       0.00249251       0.00157094      -0.00062517 </v>
   <v>      -0.00570435      -0.00262990      -0.00058408 </v>
   <v>       0.00670288      -0.00370667       0.00182353 </v>
   <v>       0.00169498      -0.00599638      -0.00008745 </v>
   <v>       0.00166657       0.00447488       0.00066037 </v>
   <v>      -0.00170677      -0.00365104       0.00247133 </v>
   <v>      -0.00397825       0.00406394      -0.00151371 </v>
  </varray>
  <varray name="stress" >
   <v>       0.00986487      -0.00120562       0.00457004 </v>
   <v>      -0.00120562       0.00607958       0.00281128 </v>
   <v>       0.00457004       0.00281128      -0.24925579 </v>
  </varray>
  <energy>
   <i name="e_fr_energy">   -477.82857685 </i>
   <i name="e_wo_entrp">   -477.82857685 </i>
   <i name="e_0_energy">     -0.00000000 </i>
  </energy>
  <time name="totalsc">  709.01  716.52</time>
  <eigenvalues>
   <array>
    <dimension dim="1">band</dimension>
    <dimension dim="2">kpoint</dimension>
    <dimension dim="3">spin</dimension>
    <field>eigene</field>
    <field>occ</field>
    <set>
     <set comment="spin 1">
      <set comment="kpoint 1">
       <r>  -26.6694    1.0000 </r>
       <r>  -26.6678    1.0000 </r>
       <r>  -26.2096    1.0000 </r>
       <r>  -26.2072    1.0000 </r>
       <r>  -26.2054    1.0000 </r>
       <r>  -26.2031    1.0000 </r>
       <r>  -25.8044    1.0000 </r>
       <r>  -25.8016    1.0000 </r>
       <r>  -23.9722    1.0000 </r>
       <r>  -23.9700    1.0000 </r>
       <r>  -23.9024    1.0000 </r>
       <r>  -23.9005    1.0000 </r>
       <r>  -23.8576    1.0000 </r>
       <r>  -23.7573    1.0000 </r>
       <r>  -23.0875    1.0000 </r>
       <r>  -23.0861    1.0000 </r>
       <r>  -23.0421    1.0000 </r>
       <r>  -23.0408    1.0000 </r>
       <r>  -21.1532    1.0000 </r>
       <r>  -21.1419    1.0000 </r>
       <r>  -21.1388    1.0000 </r>
       <r>  -19.2533    1.0000 </r>
       <r>  -19.2513    1.0000 </r>
       <r>  -19.0054    1.0000 </r>
       <r>  -18.6759    1.0000 </r>
       <r>  -18.6716    1.0000 </r>
       <r>  -18.6627    1.0000 </r>
       <r>  -18.3863    1.0000 </r>
       <r>  -18.3819    1.0000 </r>
       <r>  -17.5222    1.0000 </r>
       <r>  -17.5205    1.0000 </r>
       <r>  -17.2699    1.0000 </r>
       <r>  -16.1447    1.0000 </r>
       <r>  -16.1412    1.0000 </r>
       <r>  -15.7428    1.0000 </r>
       <r>  -15.7365    1.0000 </r>
       <r>  -15.5293    1.0000 </r>
       <r>  -15.5257    1.0000 </r>
       <r>  -14.7954    1.0000 </r>
       <r>  -14.7923    1.0000 </r>
       <r>  -14.7519    1.0000 </r>
       <r>  -14.4949    1.0000 </r>
       <r>  -14.4060    1.0000 </r>
       <r>  -14.1120    1.0000 </r>
       <r>  -13.8393    1.0000 </r>
       <r>  -13.8368    1.0000 </r>
       <r>  -13.5788    1.0000 </r>
       <r>  -13.5771    1.0000 </r>
       <r>  -13.4783    1.0000 </r>
       <r>  -13.2218    1.0000 </r>
       <r>  -13.2207    1.0000 </r>
       <r>  -12.9033    1.0000 </r>
       <r>  -12.4922    1.0000 </r>
       <r>  -12.2562    1.0000 </r>
       <r>  -12.2507    1.0000 </r>
       <r>  -11.9846    1.0000 </r>
       <r>  -11.9829    1.0000 </r>
       <r>  -11.9207    1.0000 </r>
       <r>  -11.9187    1.0000 </r>
       <r>  -11.1028    1.0000 </r>
       <r>  -11.0607    1.0000 </r>
       <r>  -11.0591    1.0000 </r>
       <r>  -10.9367    1.0000 </r>
       <r>  -10.9348    1.0000 </r>
       <r>  -10.8443    1.0000 </r>
       <r>  -10.8398    1.0000 </r>
       <r>  -10.6676    1.0000 </r>
       <r>  -10.6626    1.0000 </r>
       <r>  -10.6605    1.0000 </r>
       <r>  -10.5330    1.0000 </r>
       <r>  -10.4255    1.0000 </r>
       <r>  -10.3498    1.0000 </r>
       <r>  -10.3089    1.0000 </r>
       <r>  -10.3063    1.0000 </r>
       <r>  -10.2465    1.0000 </r>
       <r>  -10.2452    1.0000 </r>
       <r>  -10.2236    1.0000 </r>
       <r>   -9.9303    1.0000 </r>
       <r>   -9.9062    1.0000 </r>
       <r>   -9.9043    1.0000 </r>
       <r>   -9.6959    1.0000 </r>
       <r>   -9.6343    1.0000 </r>
       <r>   -9.6260    1.0000 </r>
       <r>   -9.6149    1.0000 </r>
       <r>   -9.6125    1.0000 </r>
       <r>   -9.5804    1.0000 </r>
       <r>   -9.5782    1.0000 </r>
       <r>   -9.1074    1.0000 </r>
       <r>   -8.8560    1.0000 </r>
       <r>   -8.8548    1.0000 </r>
       <r>   -8.4420    1.0000 </r>
       <r>   -8.4381    1.0000 </r>
       <r>   -8.4297    1.0000 </r>
       <r>   -8.4257    1.0000 </r>
       <r>   -8.4250    1.0000 </r>
       <r>   -8.1720    1.0000 </r>
       <r>   -8.0403    1.0000 </r>
       <r>   -8.0390    1.0000 </r>
       <r>   -7.0911    1.0000 </r>
       <r>   -7.0869    1.0000 </r>
       <r>   -7.0641    1.0000 </r>
       <r>   -7.0611    1.0000 </r>
       <r>   -6.9455    1.0000 </r>
       <r>   -6.9313    1.0000 </r>
       <r>   -6.9277    1.0000 </r>
       <r>   -6.4801    1.0000 </r>
       <r>   -6.4747    1.0000 </r>
       <r>   -6.4745    1.0000 </r>
       <r>   -6.2912    1.0000 </r>
       <r>   -6.1677    1.0000 </r>
       <r>   -6.0113    1.0000 </r>
       <r>   -6.0080    1.0000 </r>
       <r>   -5.8892    1.0000 </r>
       <r>   -5.8854    1.0000 </r>
       <r>   -5.2577    1.0000 </r>
       <r>   -5.2538    1.0000 </r>
       <r>   -5.2037    1.0000 </r>
       <r>   -3.6702    0.0000 </r>
       <r>   -3.6693    0.0000 </r>
       <r>   -3.3973    0.0000 </r>
       <r>   -3.3960    0.0000 </r>
       <r>   -2.1602    0.0000 </r>
       <r>   -1.4699    0.0000 </r>
       <r>   -1.3512    0.0000 </r>
       <r>   -1.3454    0.0000 </r>
       <r>   -1.3447    0.0000 </r>
       <r>   -1.0632    0.0000 </r>
       <r>   -1.0603    0.0000 </r>
       <r>   -0.4567    0.0000 </r>
       <r>   -0.3355    0.0000 </r>
       <r>   -0.2777    0.0000 </r>
       <r>    0.0174    0.0000 </r>
       <r>    0.0195    0.0000 </r>
       <r>    0.1828    0.0000 </r>
       <r>    0.1859    0.0000 </r>
       <r>    0.3610    0.0000 </r>
       <r>    0.3839    0.0000 </r>
       <r>    0.3866    0.0000 </r>
       <r>    0.4024    0.0000 </r>
       <r>    0.5432    0.0000 </r>
       <r>    0.6264    0.0000 </r>
       <r>    0.6308    0.0000 </r>
       <r>    0.6340    0.0000 </r>
       <r>    0.7064    0.0000 </r>
       <r>    0.8181    0.0000 </r>
       <r>    0.8200    0.0000 </r>
       <r>    0.8471    0.0000 </r>
       <r>    0.8480    0.0000 </r>
       <r>    0.9349    0.0000 </r>
       <r>    0.9658    0.0000 </r>
       <r>    0.9679    0.0000 </r>
       <r>    0.9836    0.0000 </r>
       <r>    0.9879    0.0000 </r>
       <r>    1.0096    0.0000 </r>
       <r>    1.0801    0.0000 </r>
       <r>    1.0837    0.0000 </r>
       <r>    1.1003    0.0000 </r>
       <r>    1.1062    0.0000 </r>
       <r>    1.1103    0.0000 </r>
       <r>    1.1192    0.0000 </r>
      </set>
      <set comment="kpoint 2">
       <r>  -26.6694    1.0000 </r>
       <r>  -26.6678    1.0000 </r>
       <r>  -26.2096    1.0000 </r>
       <r>  -26.2072    1.0000 </r>
       <r>  -26.2054    1.0000 </r>
       <r>  -26.2031    1.0000 </r>
       <r>  -25.8044    1.0000 </r>
       <r>  -25.8016    1.0000 </r>
       <r>  -23.9722    1.0000 </r>
       <r>  -23.9699    1.0000 </r>
       <r>  -23.9025    1.0000 </r>
       <r>  -23.9007    1.0000 </r>
       <r>  -23.8572    1.0000 </r>
       <r>  -23.7575    1.0000 </r>
       <r>  -23.0875    1.0000 </r>
       <r>  -23.0861    1.0000 </r>
       <r>  -23.0422    1.0000 </r>
       <r>  -23.0408    1.0000 </r>
       <r>  -21.1532    1.0000 </r>
       <r>  -21.1419    1.0000 </r>
       <r>  -21.1388    1.0000 </r>
       <r>  -19.2531    1.0000 </r>
       <r>  -19.2513    1.0000 </r>
       <r>  -19.0060    1.0000 </r>
       <r>  -18.6759    1.0000 </r>
       <r>  -18.6716    1.0000 </r>
       <r>  -18.6628    1.0000 </r>
       <r>  -18.3851    1.0000 </r>
       <r>  -18.3819    1.0000 </r>
       <r>  -17.5264    1.0000 </r>
       <r>  -17.5209    1.0000 </r>
       <r>  -17.2651    1.0000 </r>
       <r>  -16.1456    1.0000 </r>
       <r>  -16.1425    1.0000 </r>
       <r>  -15.7427    1.0000 </r>
       <r>  -15.7365    1.0000 </r>
       <r>  -15.5291    1.0000 </r>
       <r>  -15.5239    1.0000 </r>
       <r>  -14.7971    1.0000 </r>
       <r>  -14.7947    1.0000 </r>
       <r>  -14.7481    1.0000 </r>
       <r>  -14.4950    1.0000 </r>
       <r>  -14.4058    1.0000 </r>
       <r>  -14.1126    1.0000 </r>
       <r>  -13.8393    1.0000 </r>
       <r>  -13.8368    1.0000 </r>
       <r>  -13.5804    1.0000 </r>
       <r>  -13.5781    1.0000 </r>
       <r>  -13.4754    1.0000 </r>
       <r>  -13.2218    1.0000 </r>
       <r>  -13.2207    1.0000 </r>
       <r>  -12.9028    1.0000 </r>
       <r>  -12.4928    1.0000 </r>
       <r>  -12.2562    1.0000 </r>
       <r>  -12.2507    1.0000 </r>
       <r>  -11.9851    1.0000 </r>
       <r>  -11.9832    1.0000 </r>
       <r>  -11.9202    1.0000 </r>
       <r>  -11.9184    1.0000 </r>
       <r>  -11.1024    1.0000 </r>
       <r>  -11.0607    1.0000 </r>
       <r>  -11.0589    1.0000 </r>
       <r>  -10.9367    1.0000 </r>
       <r>  -10.9350    1.0000 </r>
       <r>  -10.8443    1.0000 </r>
       <r>  -10.8401    1.0000 </r>
       <r>  -10.6676    1.0000 </r>
       <r>  -10.6626    1.0000 </r>
       <r>  -10.6605    1.0000 </r>
       <r>  -10.5326    1.0000 </r>
       <r>  -10.4254    1.0000 </r>
       <r>  -10.3504    1.0000 </r>
       <r>  -10.3087    1.0000 </r>
       <r>  -10.3062    1.0000 </r>
       <r>  -10.2464    1.0000 </r>
       <r>  -10.2450    1.0000 </r>
       <r>  -10.2240    1.0000 </r>
       <r>   -9.9302    1.0000 </r>
       <r>   -9.9062    1.0000 </r>
       <r>   -9.9043    1.0000 </r>
       <r>   -9.6959    1.0000 </r>
       <r>   -9.6343    1.0000 </r>
       <r>   -9.6261    1.0000 </r>
       <r>   -9.6149    1.0000 </r>
       <r>   -9.6125    1.0000 </r>
       <r>   -9.5804    1.0000 </r>
       <r>   -9.5776    1.0000 </r>
       <r>   -9.1088    1.0000 </r>
       <r>   -8.8560    1.0000 </r>
       <r>   -8.8535    1.0000 </r>
       <r>   -8.4420    1.0000 </r>
       <r>   -8.4381    1.0000 </r>
       <r>   -8.4299    1.0000 </r>
       <r>   -8.4262    1.0000 </r>
       <r>   -8.4250    1.0000 </r>
       <r>   -8.1716    1.0000 </r>
       <r>   -8.0404    1.0000 </r>
       <r>   -8.0390    1.0000 </r>
       <r>   -7.0911    1.0000 </r>
       <r>   -7.0869    1.0000 </r>
       <r>   -7.0641    1.0000 </r>
       <r>   -7.0611    1.0000 </r>
       <r>   -6.9454    1.0000 </r>
       <r>   -6.9313    1.0000 </r>
       <r>   -6.9277    1.0000 </r>
       <r>   -6.4801    1.0000 </r>
       <r>   -6.4747    1.0000 </r>
       <r>   -6.4745    1.0000 </r>
       <r>   -6.2910    1.0000 </r>
       <r>   -6.1681    1.0000 </r>
       <r>   -6.0113    1.0000 </r>
       <r>   -6.0077    1.0000 </r>
       <r>   -5.8892    1.0000 </r>
       <r>   -5.8856    1.0000 </r>
       <r>   -5.2577    1.0000 </r>
       <r>   -5.2537    1.0000 </r>
       <r>   -5.2037    1.0000 </r>
       <r>   -3.6700    0.0000 </r>
       <r>   -3.6691    0.0000 </r>
       <r>   -3.3975    0.0000 </r>
       <r>   -3.3963    0.0000 </r>
       <r>   -2.1594    0.0000 </r>
       <r>   -1.4722    0.0000 </r>
       <r>   -1.3512    0.0000 </r>
       <r>   -1.3454    0.0000 </r>
       <r>   -1.3447    0.0000 </r>
       <r>   -1.0629    0.0000 </r>
       <r>   -1.0583    0.0000 </r>
       <r>   -0.4566    0.0000 </r>
       <r>   -0.3360    0.0000 </r>
       <r>   -0.2786    0.0000 </r>
       <r>    0.0172    0.0000 </r>
       <r>    0.0197    0.0000 </r>
       <r>    0.1828    0.0000 </r>
       <r>    0.1865    0.0000 </r>
       <r>    0.3616    0.0000 </r>
       <r>    0.3817    0.0000 </r>
       <r>    0.3860    0.0000 </r>
       <r>    0.4062    0.0000 </r>
       <r>    0.5423    0.0000 </r>
       <r>    0.6227    0.0000 </r>
       <r>    0.6316    0.0000 </r>
       <r>    0.6379    0.0000 </r>
       <r>    0.7055    0.0000 </r>
       <r>    0.8164    0.0000 </r>
       <r>    0.8175    0.0000 </r>
       <r>    0.8462    0.0000 </r>
       <r>    0.8485    0.0000 </r>
       <r>    0.9364    0.0000 </r>
       <r>    0.9659    0.0000 </r>
       <r>    0.9670    0.0000 </r>
       <r>    0.9828    0.0000 </r>
       <r>    0.9887    0.0000 </r>
       <r>    1.0103    0.0000 </r>
       <r>    1.0753    0.0000 </r>
       <r>    1.0815    0.0000 </r>
       <r>    1.1029    0.0000 </r>
       <r>    1.1060    0.0000 </r>
       <r>    1.1122    0.0000 </r>
       <r>    1.1258    0.0000 </r>
      </set>
      <set comment="kpoint 3">
       <r>  -26.6694    1.0000 </r>
       <r>  -26.6678    1.0000 </r>
       <r>  -26.2096    1.0000 </r>
       <r>  -26.2072    1.0000 </r>
       <r>  -26.2054    1.0000 </r>
       <r>  -26.2031    1.0000 </r>
       <r>  -25.8044    1.0000 </r>
       <r>  -25.8016    1.0000 </r>
       <r>  -23.9721    1.0000 </r>
       <r>  -23.9698    1.0000 </r>
       <r>  -23.9031    1.0000 </r>
       <r>  -23.9011    1.0000 </r>
       <r>  -23.8561    1.0000 </r>
       <r>  -23.7578    1.0000 </r>
       <r>  -23.0873    1.0000 </r>
       <r>  -23.0861    1.0000 </r>
       <r>  -23.0424    1.0000 </r>
       <r>  -23.0408    1.0000 </r>
       <r>  -21.1531    1.0000 </r>
       <r>  -21.1419    1.0000 </r>
       <r>  -21.1388    1.0000 </r>
       <r>  -19.2526    1.0000 </r>
       <r>  -19.2510    1.0000 </r>
       <r>  -19.0078    1.0000 </r>
       <r>  -18.6759    1.0000 </r>
       <r>  -18.6716    1.0000 </r>
       <r>  -18.6630    1.0000 </r>
       <r>  -18.3820    1.0000 </r>
       <r>  -18.3816    1.0000 </r>
       <r>  -17.5392    1.0000 </r>
       <r>  -17.5210    1.0000 </r>
       <r>  -17.2515    1.0000 </r>
       <r>  -16.1515    1.0000 </r>
       <r>  -16.1434    1.0000 </r>
       <r>  -15.7427    1.0000 </r>
       <r>  -15.7363    1.0000 </r>
       <r>  -15.5290    1.0000 </r>
       <r>  -15.5183    1.0000 </r>
       <r>  -14.8064    1.0000 </r>
       <r>  -14.7949    1.0000 </r>
       <r>  -14.7395    1.0000 </r>
       <r>  -14.4953    1.0000 </r>
       <r>  -14.4051    1.0000 </r>
       <r>  -14.1143    1.0000 </r>
       <r>  -13.8393    1.0000 </r>
       <r>  -13.8367    1.0000 </r>
       <r>  -13.5875    1.0000 </r>
       <r>  -13.5780    1.0000 </r>
       <r>  -13.4677    1.0000 </r>
       <r>  -13.2219    1.0000 </r>
       <r>  -13.2208    1.0000 </r>
       <r>  -12.9011    1.0000 </r>
       <r>  -12.4948    1.0000 </r>
       <r>  -12.2562    1.0000 </r>
       <r>  -12.2507    1.0000 </r>
       <r>  -11.9864    1.0000 </r>
       <r>  -11.9842    1.0000 </r>
       <r>  -11.9191    1.0000 </r>
       <r>  -11.9174    1.0000 </r>
       <r>  -11.1010    1.0000 </r>
       <r>  -11.0606    1.0000 </r>
       <r>  -11.0586    1.0000 </r>
       <r>  -10.9370    1.0000 </r>
       <r>  -10.9355    1.0000 </r>
       <r>  -10.8445    1.0000 </r>
       <r>  -10.8408    1.0000 </r>
       <r>  -10.6676    1.0000 </r>
       <r>  -10.6626    1.0000 </r>
       <r>  -10.6606    1.0000 </r>
       <r>  -10.5313    1.0000 </r>
       <r>  -10.4252    1.0000 </r>
       <r>  -10.3521    1.0000 </r>
       <r>  -10.3084    1.0000 </r>
       <r>  -10.3059    1.0000 </r>
       <r>  -10.2460    1.0000 </r>
       <r>  -10.2445    1.0000 </r>
       <r>  -10.2254    1.0000 </r>
       <r>   -9.9302    1.0000 </r>
       <r>   -9.9062    1.0000 </r>
       <r>   -9.9045    1.0000 </r>
       <r>   -9.6956    1.0000 </r>
       <r>   -9.6342    1.0000 </r>
       <r>   -9.6264    1.0000 </r>
       <r>   -9.6149    1.0000 </r>
       <r>   -9.6126    1.0000 </r>
       <r>   -9.5803    1.0000 </r>
       <r>   -9.5756    1.0000 </r>
       <r>   -9.1130    1.0000 </r>
       <r>   -8.8560    1.0000 </r>
       <r>   -8.8495    1.0000 </r>
       <r>   -8.4420    1.0000 </r>
       <r>   -8.4381    1.0000 </r>
       <r>   -8.4305    1.0000 </r>
       <r>   -8.4276    1.0000 </r>
       <r>   -8.4248    1.0000 </r>
       <r>   -8.1705    1.0000 </r>
       <r>   -8.0406    1.0000 </r>
       <r>   -8.0391    1.0000 </r>
       <r>   -7.0911    1.0000 </r>
       <r>   -7.0867    1.0000 </r>
       <r>   -7.0641    1.0000 </r>
       <r>   -7.0612    1.0000 </r>
       <r>   -6.9454    1.0000 </r>
       <r>   -6.9313    1.0000 </r>
       <r>   -6.9277    1.0000 </r>
       <r>   -6.4801    1.0000 </r>
       <r>   -6.4747    1.0000 </r>
       <r>   -6.4745    1.0000 </r>
       <r>   -6.2906    1.0000 </r>
       <r>   -6.1690    1.0000 </r>
       <r>   -6.0113    1.0000 </r>
       <r>   -6.0067    1.0000 </r>
       <r>   -5.8892    1.0000 </r>
       <r>   -5.8859    1.0000 </r>
       <r>   -5.2577    1.0000 </r>
       <r>   -5.2535    1.0000 </r>
       <r>   -5.2040    1.0000 </r>
       <r>   -3.6698    0.0000 </r>
       <r>   -3.6683    0.0000 </r>
       <r>   -3.3986    0.0000 </r>
       <r>   -3.3967    0.0000 </r>
       <r>   -2.1569    0.0000 </r>
       <r>   -1.4789    0.0000 </r>
       <r>   -1.3512    0.0000 </r>
       <r>   -1.3454    0.0000 </r>
       <r>   -1.3447    0.0000 </r>
       <r>   -1.0628    0.0000 </r>
       <r>   -1.0517    0.0000 </r>
       <r>   -0.4561    0.0000 </r>
       <r>   -0.3377    0.0000 </r>
       <r>   -0.2814    0.0000 </r>
       <r>    0.0166    0.0000 </r>
       <r>    0.0204    0.0000 </r>
       <r>    0.1826    0.0000 </r>
       <r>    0.1882    0.0000 </r>
       <r>    0.3635    0.0000 </r>
       <r>    0.3768    0.0000 </r>
       <r>    0.3859    0.0000 </r>
       <r>    0.4144    0.0000 </r>
       <r>    0.5397    0.0000 </r>
       <r>    0.6182    0.0000 </r>
       <r>    0.6316    0.0000 </r>
       <r>    0.6454    0.0000 </r>
       <r>    0.7028    0.0000 </r>
       <r>    0.8105    0.0000 </r>
       <r>    0.8118    0.0000 </r>
       <r>    0.8424    0.0000 </r>
       <r>    0.8514    0.0000 </r>
       <r>    0.9392    0.0000 </r>
       <r>    0.9632    0.0000 </r>
       <r>    0.9678    0.0000 </r>
       <r>    0.9805    0.0000 </r>
       <r>    0.9915    0.0000 </r>
       <r>    1.0116    0.0000 </r>
       <r>    1.0663    0.0000 </r>
       <r>    1.0763    0.0000 </r>
       <r>    1.1046    0.0000 </r>
       <r>    1.1097    0.0000 </r>
       <r>    1.1199    0.0000 </r>
       <r>    1.1381    0.0000 </r>
      </set>
      <set comment="kpoint 4">
       <r>  -26.6694    1.0000 </r>
       <r>  -26.6678    1.0000 </r>
       <r>  -26.2096    1.0000 </r>
       <r>  -26.2072    1.0000 </r>
       <r>  -26.2054    1.0000 </r>
       <r>  -26.2032    1.0000 </r>
       <r>  -25.8044    1.0000 </r>
       <r>  -25.8016    1.0000 </r>
       <r>  -23.9720    1.0000 </r>
       <r>  -23.9696    1.0000 </r>
       <r>  -23.9043    1.0000 </r>
       <r>  -23.9013    1.0000 </r>
       <r>  -23.8544    1.0000 </r>
       <r>  -23.7583    1.0000 </r>
       <r>  -23.0869    1.0000 </r>
       <r>  -23.0861    1.0000 </r>
       <r>  -23.0427    1.0000 </r>
       <r>  -23.0408    1.0000 </r>
       <r>  -21.1531    1.0000 </r>
       <r>  -21.1419    1.0000 </r>
       <r>  -21.1389    1.0000 </r>
       <r>  -19.2521    1.0000 </r>
       <r>  -19.2502    1.0000 </r>
       <r>  -19.0109    1.0000 </r>
       <r>  -18.6759    1.0000 </r>
       <r>  -18.6716    1.0000 </r>
       <r>  -18.6633    1.0000 </r>
       <r>  -18.3819    1.0000 </r>
       <r>  -18.3761    1.0000 </r>
       <r>  -17.5583    1.0000 </r>
       <r>  -17.5210    1.0000 </r>
       <r>  -17.2313    1.0000 </r>
       <r>  -16.1623    1.0000 </r>
       <r>  -16.1436    1.0000 </r>
       <r>  -15.7426    1.0000 </r>
       <r>  -15.7360    1.0000 </r>
       <r>  -15.5290    1.0000 </r>
       <r>  -15.5091    1.0000 </r>
       <r>  -14.8184    1.0000 </r>
       <r>  -14.7949    1.0000 </r>
       <r>  -14.7291    1.0000 </r>
       <r>  -14.4959    1.0000 </r>
       <r>  -14.4039    1.0000 </r>
       <r>  -14.1173    1.0000 </r>
       <r>  -13.8394    1.0000 </r>
       <r>  -13.8364    1.0000 </r>
       <r>  -13.5978    1.0000 </r>
       <r>  -13.5775    1.0000 </r>
       <r>  -13.4567    1.0000 </r>
       <r>  -13.2222    1.0000 </r>
       <r>  -13.2209    1.0000 </r>
       <r>  -12.8984    1.0000 </r>
       <r>  -12.4979    1.0000 </r>
       <r>  -12.2561    1.0000 </r>
       <r>  -12.2507    1.0000 </r>
       <r>  -11.9885    1.0000 </r>
       <r>  -11.9856    1.0000 </r>
       <r>  -11.9181    1.0000 </r>
       <r>  -11.9152    1.0000 </r>
       <r>  -11.0988    1.0000 </r>
       <r>  -11.0605    1.0000 </r>
       <r>  -11.0580    1.0000 </r>
       <r>  -10.9379    1.0000 </r>
       <r>  -10.9359    1.0000 </r>
       <r>  -10.8452    1.0000 </r>
       <r>  -10.8419    1.0000 </r>
       <r>  -10.6676    1.0000 </r>
       <r>  -10.6626    1.0000 </r>
       <r>  -10.6606    1.0000 </r>
       <r>  -10.5293    1.0000 </r>
       <r>  -10.4248    1.0000 </r>
       <r>  -10.3547    1.0000 </r>
       <r>  -10.3087    1.0000 </r>
       <r>  -10.3047    1.0000 </r>
       <r>  -10.2454    1.0000 </r>
       <r>  -10.2437    1.0000 </r>
       <r>  -10.2275    1.0000 </r>
       <r>   -9.9301    1.0000 </r>
       <r>   -9.9063    1.0000 </r>
       <r>   -9.9049    1.0000 </r>
       <r>   -9.6951    1.0000 </r>
       <r>   -9.6341    1.0000 </r>
       <r>   -9.6269    1.0000 </r>
       <r>   -9.6149    1.0000 </r>
       <r>   -9.6126    1.0000 </r>
       <r>   -9.5803    1.0000 </r>
       <r>   -9.5723    1.0000 </r>
       <r>   -9.1196    1.0000 </r>
       <r>   -8.8560    1.0000 </r>
       <r>   -8.8432    1.0000 </r>
       <r>   -8.4421    1.0000 </r>
       <r>   -8.4381    1.0000 </r>
       <r>   -8.4326    1.0000 </r>
       <r>   -8.4288    1.0000 </r>
       <r>   -8.4246    1.0000 </r>
       <r>   -8.1686    1.0000 </r>
       <r>   -8.0411    1.0000 </r>
       <r>   -8.0392    1.0000 </r>
       <r>   -7.0911    1.0000 </r>
       <r>   -7.0866    1.0000 </r>
       <r>   -7.0642    1.0000 </r>
       <r>   -7.0614    1.0000 </r>
       <r>   -6.9452    1.0000 </r>
       <r>   -6.9313    1.0000 </r>
       <r>   -6.9278    1.0000 </r>
       <r>   -6.4801    1.0000 </r>
       <r>   -6.4747    1.0000 </r>
       <r>   -6.4745    1.0000 </r>
       <r>   -6.2900    1.0000 </r>
       <r>   -6.1706    1.0000 </r>
       <r>   -6.0113    1.0000 </r>
       <r>   -6.0052    1.0000 </r>
       <r>   -5.8892    1.0000 </r>
       <r>   -5.8865    1.0000 </r>
       <r>   -5.2576    1.0000 </r>
       <r>   -5.2532    1.0000 </r>
       <r>   -5.2044    1.0000 </r>
       <r>   -3.6697    0.0000 </r>
       <r>   -3.6666    0.0000 </r>
       <r>   -3.4010    0.0000 </r>
       <r>   -3.3968    0.0000 </r>
       <r>   -2.1528    0.0000 </r>
       <r>   -1.4896    0.0000 </r>
       <r>   -1.3512    0.0000 </r>
       <r>   -1.3453    0.0000 </r>
       <r>   -1.3447    0.0000 </r>
       <r>   -1.0627    0.0000 </r>
       <r>   -1.0409    0.0000 </r>
       <r>   -0.4554    0.0000 </r>
       <r>   -0.3405    0.0000 </r>
       <r>   -0.2858    0.0000 </r>
       <r>    0.0153    0.0000 </r>
       <r>    0.0216    0.0000 </r>
       <r>    0.1822    0.0000 </r>
       <r>    0.1911    0.0000 </r>
       <r>    0.3666    0.0000 </r>
       <r>    0.3719    0.0000 </r>
       <r>    0.3858    0.0000 </r>
       <r>    0.4244    0.0000 </r>
       <r>    0.5356    0.0000 </r>
       <r>    0.6150    0.0000 </r>
       <r>    0.6314    0.0000 </r>
       <r>    0.6537    0.0000 </r>
       <r>    0.6983    0.0000 </r>
       <r>    0.7998    0.0000 </r>
       <r>    0.8048    0.0000 </r>
       <r>    0.8385    0.0000 </r>
       <r>    0.8546    0.0000 </r>
       <r>    0.9402    0.0000 </r>
       <r>    0.9586    0.0000 </r>
       <r>    0.9701    0.0000 </r>
       <r>    0.9786    0.0000 </r>
       <r>    0.9962    0.0000 </r>
       <r>    1.0115    0.0000 </r>
       <r>    1.0574    0.0000 </r>
       <r>    1.0712    0.0000 </r>
       <r>    1.1068    0.0000 </r>
       <r>    1.1171    0.0000 </r>
       <r>    1.1293    0.0000 </r>
       <r>    1.1521    0.0000 </r>
      </set>
      <set comment="kpoint 5">
       <r>  -26.6693    1.0000 </r>
       <r>  -26.6678    1.0000 </r>
       <r>  -26.2096    1.0000 </r>
       <r>  -26.2072    1.0000 </r>
       <r>  -26.2054    1.0000 </r>
       <r>  -26.2032    1.0000 </r>
       <r>  -25.8044    1.0000 </r>
       <r>  -25.8017    1.0000 </r>
       <r>  -23.9719    1.0000 </r>
       <r>  -23.9693    1.0000 </r>
       <r>  -23.9061    1.0000 </r>
       <r>  -23.9014    1.0000 </r>
       <r>  -23.8522    1.0000 </r>
       <r>  -23.7591    1.0000 </r>
       <r>  -23.0865    1.0000 </r>
       <r>  -23.0860    1.0000 </r>
       <r>  -23.0431    1.0000 </r>
       <r>  -23.0408    1.0000 </r>
       <r>  -21.1530    1.0000 </r>
       <r>  -21.1419    1.0000 </r>
       <r>  -21.1390    1.0000 </r>
       <r>  -19.2519    1.0000 </r>
       <r>  -19.2486    1.0000 </r>
       <r>  -19.0150    1.0000 </r>
       <r>  -18.6760    1.0000 </r>
       <r>  -18.6716    1.0000 </r>
       <r>  -18.6638    1.0000 </r>
       <r>  -18.3819    1.0000 </r>
       <r>  -18.3684    1.0000 </r>
       <r>  -17.5816    1.0000 </r>
       <r>  -17.5210    1.0000 </r>
       <r>  -17.2067    1.0000 </r>
       <r>  -16.1770    1.0000 </r>
       <r>  -16.1437    1.0000 </r>
       <r>  -15.7425    1.0000 </r>
       <r>  -15.7357    1.0000 </r>
       <r>  -15.5290    1.0000 </r>
       <r>  -15.4967    1.0000 </r>
       <r>  -14.8317    1.0000 </r>
       <r>  -14.7947    1.0000 </r>
       <r>  -14.7182    1.0000 </r>
       <r>  -14.4967    1.0000 </r>
       <r>  -14.4023    1.0000 </r>
       <r>  -14.1214    1.0000 </r>
       <r>  -13.8398    1.0000 </r>
       <r>  -13.8359    1.0000 </r>
       <r>  -13.6096    1.0000 </r>
       <r>  -13.5768    1.0000 </r>
       <r>  -13.4439    1.0000 </r>
       <r>  -13.2226    1.0000 </r>
       <r>  -13.2208    1.0000 </r>
       <r>  -12.8946    1.0000 </r>
       <r>  -12.5024    1.0000 </r>
       <r>  -12.2561    1.0000 </r>
       <r>  -12.2508    1.0000 </r>
       <r>  -11.9911    1.0000 </r>
       <r>  -11.9875    1.0000 </r>
       <r>  -11.9170    1.0000 </r>
       <r>  -11.9122    1.0000 </r>
       <r>  -11.0958    1.0000 </r>
       <r>  -11.0605    1.0000 </r>
       <r>  -11.0571    1.0000 </r>
       <r>  -10.9394    1.0000 </r>
       <r>  -10.9361    1.0000 </r>
       <r>  -10.8467    1.0000 </r>
       <r>  -10.8426    1.0000 </r>
       <r>  -10.6677    1.0000 </r>
       <r>  -10.6627    1.0000 </r>
       <r>  -10.6607    1.0000 </r>
       <r>  -10.5264    1.0000 </r>
       <r>  -10.4242    1.0000 </r>
       <r>  -10.3579    1.0000 </r>
       <r>  -10.3096    1.0000 </r>
       <r>  -10.3030    1.0000 </r>
       <r>  -10.2447    1.0000 </r>
       <r>  -10.2426    1.0000 </r>
       <r>  -10.2304    1.0000 </r>
       <r>   -9.9300    1.0000 </r>
       <r>   -9.9063    1.0000 </r>
       <r>   -9.9053    1.0000 </r>
       <r>   -9.6944    1.0000 </r>
       <r>   -9.6339    1.0000 </r>
       <r>   -9.6277    1.0000 </r>
       <r>   -9.6149    1.0000 </r>
       <r>   -9.6127    1.0000 </r>
       <r>   -9.5803    1.0000 </r>
       <r>   -9.5678    1.0000 </r>
       <r>   -9.1284    1.0000 </r>
       <r>   -8.8559    1.0000 </r>
       <r>   -8.8349    1.0000 </r>
       <r>   -8.4423    1.0000 </r>
       <r>   -8.4383    1.0000 </r>
       <r>   -8.4361    1.0000 </r>
       <r>   -8.4294    1.0000 </r>
       <r>   -8.4244    1.0000 </r>
       <r>   -8.1661    1.0000 </r>
       <r>   -8.0419    1.0000 </r>
       <r>   -8.0393    1.0000 </r>
       <r>   -7.0910    1.0000 </r>
       <r>   -7.0863    1.0000 </r>
       <r>   -7.0642    1.0000 </r>
       <r>   -7.0617    1.0000 </r>
       <r>   -6.9451    1.0000 </r>
       <r>   -6.9312    1.0000 </r>
       <r>   -6.9279    1.0000 </r>
       <r>   -6.4801    1.0000 </r>
       <r>   -6.4747    1.0000 </r>
       <r>   -6.4745    1.0000 </r>
       <r>   -6.2891    1.0000 </r>
       <r>   -6.1728    1.0000 </r>
       <r>   -6.0113    1.0000 </r>
       <r>   -6.0030    1.0000 </r>
       <r>   -5.8893    1.0000 </r>
       <r>   -5.8873    1.0000 </r>
       <r>   -5.2576    1.0000 </r>
       <r>   -5.2528    1.0000 </r>
       <r>   -5.2050    1.0000 </r>
       <r>   -3.6696    0.0000 </r>
       <r>   -3.6642    0.0000 </r>
       <r>   -3.4044    0.0000 </r>
       <r>   -3.3969    0.0000 </r>
       <r>   -2.1471    0.0000 </r>
       <r>   -1.5036    0.0000 </r>
       <r>   -1.3512    0.0000 </r>
       <r>   -1.3453    0.0000 </r>
       <r>   -1.3447    0.0000 </r>
       <r>   -1.0627    0.0000 </r>
       <r>   -1.0266    0.0000 </r>
       <r>   -0.4543    0.0000 </r>
       <r>   -0.3445    0.0000 </r>
       <r>   -0.2917    0.0000 </r>
       <r>    0.0136    0.0000 </r>
       <r>    0.0233    0.0000 </r>
       <r>    0.1819    0.0000 </r>
       <r>    0.1950    0.0000 </r>
       <r>    0.3674    0.0000 </r>
       <r>    0.3712    0.0000 </r>
       <r>    0.3859    0.0000 </r>
       <r>    0.4356    0.0000 </r>
       <r>    0.5302    0.0000 </r>
       <r>    0.6131    0.0000 </r>
       <r>    0.6310    0.0000 </r>
       <r>    0.6623    0.0000 </r>
       <r>    0.6922    0.0000 </r>
       <r>    0.7863    0.0000 </r>
       <r>    0.7964    0.0000 </r>
       <r>    0.8352    0.0000 </r>
       <r>    0.8574    0.0000 </r>
       <r>    0.9379    0.0000 </r>
       <r>    0.9536    0.0000 </r>
       <r>    0.9704    0.0000 </r>
       <r>    0.9797    0.0000 </r>
       <r>    1.0018    0.0000 </r>
       <r>    1.0098    0.0000 </r>
       <r>    1.0499    0.0000 </r>
       <r>    1.0679    0.0000 </r>
       <r>    1.1109    0.0000 </r>
       <r>    1.1260    0.0000 </r>
       <r>    1.1388    0.0000 </r>
       <r>    1.1655    0.0000 </r>
      </set>
      <set comment="kpoint 6">
       <r>  -26.6693    1.0000 </r>
       <r>  -26.6679    1.0000 </r>
       <r>  -26.2096    1.0000 </r>
       <r>  -26.2072    1.0000 </r>
       <r>  -26.2053    1.0000 </r>
       <r>  -26.2032    1.0000 </r>
       <r>  -25.8043    1.0000 </r>
       <r>  -25.8017    1.0000 </r>
       <r>  -23.9718    1.0000 </r>
       <r>  -23.9689    1.0000 </r>
       <r>  -23.9083    1.0000 </r>
       <r>  -23.9015    1.0000 </r>
       <r>  -23.8496    1.0000 </r>
       <r>  -23.7600    1.0000 </r>
       <r>  -23.0863    1.0000 </r>
       <r>  -23.0856    1.0000 </r>
       <r>  -23.0437    1.0000 </r>
       <r>  -23.0408    1.0000 </r>
       <r>  -21.1528    1.0000 </r>
       <r>  -21.1419    1.0000 </r>
       <r>  -21.1391    1.0000 </r>
       <r>  -19.2518    1.0000 </r>
       <r>  -19.2463    1.0000 </r>
       <r>  -19.0201    1.0000 </r>
       <r>  -18.6760    1.0000 </r>
       <r>  -18.6716    1.0000 </r>
       <r>  -18.6642    1.0000 </r>
       <r>  -18.3819    1.0000 </r>
       <r>  -18.3588    1.0000 </r>
       <r>  -17.6074    1.0000 </r>
       <r>  -17.5210    1.0000 </r>
       <r>  -17.1790    1.0000 </r>
       <r>  -16.1951    1.0000 </r>
       <r>  -16.1437    1.0000 </r>
       <r>  -15.7424    1.0000 </r>
       <r>  -15.7355    1.0000 </r>
       <r>  -15.5291    1.0000 </r>
       <r>  -15.4815    1.0000 </r>
       <r>  -14.8458    1.0000 </r>
       <r>  -14.7945    1.0000 </r>
       <r>  -14.7071    1.0000 </r>
       <r>  -14.4979    1.0000 </r>
       <r>  -14.4001    1.0000 </r>
       <r>  -14.1266    1.0000 </r>
       <r>  -13.8403    1.0000 </r>
       <r>  -13.8351    1.0000 </r>
       <r>  -13.6221    1.0000 </r>
       <r>  -13.5760    1.0000 </r>
       <r>  -13.4303    1.0000 </r>
       <r>  -13.2233    1.0000 </r>
       <r>  -13.2207    1.0000 </r>
       <r>  -12.8897    1.0000 </r>
       <r>  -12.5080    1.0000 </r>
       <r>  -12.2561    1.0000 </r>
       <r>  -12.2509    1.0000 </r>
       <r>  -11.9941    1.0000 </r>
       <r>  -11.9897    1.0000 </r>
       <r>  -11.9159    1.0000 </r>
       <r>  -11.9085    1.0000 </r>
       <r>  -11.0919    1.0000 </r>
       <r>  -11.0604    1.0000 </r>
       <r>  -11.0559    1.0000 </r>
       <r>  -10.9415    1.0000 </r>
       <r>  -10.9362    1.0000 </r>
       <r>  -10.8492    1.0000 </r>
       <r>  -10.8430    1.0000 </r>
       <r>  -10.6677    1.0000 </r>
       <r>  -10.6627    1.0000 </r>
[...]
   <v name="MAGDIPOLOUT">      0.00000000      0.00000000      0.00000000</v>
  </separator>
  <dos>
   <i name="efermi">     -5.15288277 </i>
   <total>
    <array>
     <dimension dim="1">gridpoints</dimension>
     <dimension dim="2">spin</dimension>
     <field>energy</field>
     <field>total</field>
     <field>integrated</field>
     <set>
      <set comment="spin 1">
       <r>   -28.0674     0.0000     0.0000 </r>
       <r>   -27.9649     0.0000     0.0000 </r>
       <r>   -27.8624     0.0000     0.0000 </r>
       <r>   -27.7599     0.0000     0.0000 </r>
       <r>   -27.6573     0.0000     0.0000 </r>
       <r>   -27.5548     0.0000     0.0000 </r>
       <r>   -27.4523     0.0000     0.0000 </r>
       <r>   -27.3498     0.0000     0.0000 </r>
       <r>   -27.2472     0.0000     0.0000 </r>
       <r>   -27.1447     0.0000     0.0000 </r>
       <r>   -27.0422     0.0000     0.0000 </r>
       <r>   -26.9397     0.0000     0.0000 </r>
       <r>   -26.8371     0.0000     0.0000 </r>
       <r>   -26.7346     0.0000     0.0000 </r>
       <r>   -26.6321    39.0145     4.0000 </r>
       <r>   -26.5296     0.0000     4.0000 </r>
       <r>   -26.4270     0.0000     4.0000 </r>
       <r>   -26.3245     0.0000     4.0000 </r>
       <r>   -26.2220     1.3400     4.1374 </r>
       <r>   -26.1194     0.0000    12.0000 </r>
       <r>   -26.0169     0.0000    12.0000 </r>
       <r>   -25.9144     0.0000    12.0000 </r>
       <r>   -25.8119     4.1768    12.4282 </r>
       <r>   -25.7093     0.0000    16.0000 </r>
       <r>   -25.6068     0.0000    16.0000 </r>
       <r>   -25.5043     0.0000    16.0000 </r>
       <r>   -25.4018     0.0000    16.0000 </r>
       <r>   -25.2992     0.0000    16.0000 </r>
       <r>   -25.1967     0.0000    16.0000 </r>
       <r>   -25.0942     0.0000    16.0000 </r>
       <r>   -24.9917     0.0000    16.0000 </r>
       <r>   -24.8891     0.0000    16.0000 </r>
       <r>   -24.7866     0.0000    16.0000 </r>
       <r>   -24.6841     0.0000    16.0000 </r>
       <r>   -24.5816     0.0000    16.0000 </r>
       <r>   -24.4790     0.0000    16.0000 </r>
       <r>   -24.3765     0.0000    16.0000 </r>
       <r>   -24.2740     0.0000    16.0000 </r>
       <r>   -24.1715     0.0000    16.0000 </r>
       <r>   -24.0689     0.0000    16.0000 </r>
       <r>   -23.9664    20.1737    18.0683 </r>
       <r>   -23.8639    36.8239    24.0422 </r>
       <r>   -23.7614    30.4788    27.6249 </r>
       <r>   -23.6588     0.0000    28.0000 </r>
       <r>   -23.5563     0.0000    28.0000 </r>
       <r>   -23.4538     0.0000    28.0000 </r>
       <r>   -23.3512     0.0000    28.0000 </r>
       <r>   -23.2487     0.0000    28.0000 </r>
       <r>   -23.1462     0.0000    28.0000 </r>
       <r>   -23.0437    61.6019    34.3158 </r>
       <r>   -22.9411     0.0000    36.0000 </r>
       <r>   -22.8386     0.0000    36.0000 </r>
       <r>   -22.7361     0.0000    36.0000 </r>
       <r>   -22.6336     0.0000    36.0000 </r>
       <r>   -22.5310     0.0000    36.0000 </r>
       <r>   -22.4285     0.0000    36.0000 </r>
       <r>   -22.3260     0.0000    36.0000 </r>
       <r>   -22.2235     0.0000    36.0000 </r>
       <r>   -22.1209     0.0000    36.0000 </r>
       <r>   -22.0184     0.0000    36.0000 </r>
       <r>   -21.9159     0.0000    36.0000 </r>
       <r>   -21.8134     0.0000    36.0000 </r>
       <r>   -21.7108     0.0000    36.0000 </r>
       <r>   -21.6083     0.0000    36.0000 </r>
       <r>   -21.5058     0.0000    36.0000 </r>
       <r>   -21.4033     0.0000    36.0000 </r>
       <r>   -21.3007     0.0000    36.0000 </r>
       <r>   -21.1982     0.0000    36.0000 </r>
       <r>   -21.0957    58.5217    42.0000 </r>
       <r>   -20.9931     0.0000    42.0000 </r>
       <r>   -20.8906     0.0000    42.0000 </r>
       <r>   -20.7881     0.0000    42.0000 </r>
       <r>   -20.6856     0.0000    42.0000 </r>
       <r>   -20.5830     0.0000    42.0000 </r>
       <r>   -20.4805     0.0000    42.0000 </r>
       <r>   -20.3780     0.0000    42.0000 </r>
       <r>   -20.2755     0.0000    42.0000 </r>
       <r>   -20.1729     0.0000    42.0000 </r>
       <r>   -20.0704     0.0000    42.0000 </r>
       <r>   -19.9679     0.0000    42.0000 </r>
       <r>   -19.8654     0.0000    42.0000 </r>
       <r>   -19.7628     0.0000    42.0000 </r>
       <r>   -19.6603     0.0000    42.0000 </r>
       <r>   -19.5578     0.0000    42.0000 </r>
       <r>   -19.4553     0.0000    42.0000 </r>
       <r>   -19.3527     0.0000    42.0000 </r>
       <r>   -19.2502    13.5623    43.3905 </r>
       <r>   -19.1477    14.0673    46.1089 </r>
       <r>   -19.0452     9.4118    47.4316 </r>
       <r>   -18.9426     3.5762    48.0000 </r>
       <r>   -18.8401     0.0000    48.0000 </r>
       <r>   -18.7376     0.0000    48.0000 </r>
       <r>   -18.6351    58.5216    54.0000 </r>
       <r>   -18.5325     0.0000    54.0000 </r>
       <r>   -18.4300     0.0000    54.0000 </r>
       <r>   -18.3275    24.3426    56.4957 </r>
       <r>   -18.2249     2.9073    56.8648 </r>
       <r>   -18.1224     6.2538    57.5745 </r>
       <r>   -18.0199     4.4858    58.1599 </r>
       <r>   -17.9174     6.1849    58.9008 </r>
       <r>   -17.8148     1.9504    59.2000 </r>
       <r>   -17.7123     1.5829    59.4290 </r>
       <r>   -17.6098     1.4340    59.6470 </r>
       <r>   -17.5073    21.9065    61.9460 </r>
       <r>   -17.4047     0.0000    62.0000 </r>
       <r>   -17.3022     0.0000    62.0000 </r>
       <r>   -17.1997     2.8999    62.2973 </r>
       <r>   -17.0972     1.3336    62.5034 </r>
       <r>   -16.9946     1.3891    62.7091 </r>
       <r>   -16.8921     1.8156    62.9195 </r>
       <r>   -16.7896     4.5652    63.4347 </r>
       <r>   -16.6871     2.9980    63.8740 </r>
       <r>   -16.5845     3.7411    64.3169 </r>
       <r>   -16.4820     5.2469    64.9713 </r>
       <r>   -16.3795     1.6964    65.2073 </r>
       <r>   -16.2770     1.6591    65.4368 </r>
       <r>   -16.1744     2.2606    65.7318 </r>
       <r>   -16.0719    21.1325    68.0000 </r>
       <r>   -15.9694     0.0000    68.0000 </r>
       <r>   -15.8668     0.0000    68.0000 </r>
       <r>   -15.7643     0.0103    68.0011 </r>
       <r>   -15.6618    33.4827    72.0000 </r>
       <r>   -15.5593     0.0002    72.0000 </r>
       <r>   -15.4567    23.7212    74.4321 </r>
       <r>   -15.3542     2.2365    74.7293 </r>
       <r>   -15.2517     2.3927    75.0453 </r>
       <r>   -15.1492     5.2946    75.8762 </r>
       <r>   -15.0466     5.3080    76.6109 </r>
       <r>   -14.9441     2.9347    77.2675 </r>
       <r>   -14.8416     3.0198    77.6763 </r>
       <r>   -14.7391    23.3100    80.1566 </r>
       <r>   -14.6365     4.6844    80.7803 </r>
       <r>   -14.5340    18.6389    82.8443 </r>
       <r>   -14.4315     6.8276    84.0000 </r>
       <r>   -14.3290    12.9814    85.3310 </r>
       <r>   -14.2264    11.5922    86.9552 </r>
       <r>   -14.1239     5.5545    87.7028 </r>
       <r>   -14.0214     0.0000    88.0000 </r>
       <r>   -13.9189     0.0000    88.0000 </r>
       <r>   -13.8163    28.9999    90.9732 </r>
       <r>   -13.7138    14.8631    93.1239 </r>
       <r>   -13.6113     4.3391    93.7116 </r>
       <r>   -13.5088    21.1327    96.0000 </r>
       <r>   -13.4062     4.4139    96.4525 </r>
       <r>   -13.3037     5.8576    97.1672 </r>
       <r>   -13.2012    41.4221   101.9802 </r>
       <r>   -13.0986     0.0000   102.0000 </r>
       <r>   -12.9961     0.0000   102.0000 </r>
       <r>   -12.8936     2.6654   102.2733 </r>
       <r>   -12.7911     4.7080   102.9827 </r>
       <r>   -12.6885     8.5733   104.1457 </r>
       <r>   -12.5860     8.0899   105.1628 </r>
       <r>   -12.4835     6.9789   105.9822 </r>
       <r>   -12.3810     0.0000   106.0000 </r>
       <r>   -12.2784     0.0128   106.0013 </r>
       <r>   -12.1759    33.8038   110.0000 </r>
       <r>   -12.0734     0.0055   110.0006 </r>
       <r>   -11.9709    33.1184   113.6955 </r>
       <r>   -11.8683    29.2499   117.1655 </r>
       <r>   -11.7658     0.0000   118.0000 </r>
       <r>   -11.6633     0.0000   118.0000 </r>
       <r>   -11.5608     0.0000   118.0000 </r>
       <r>   -11.4582     0.0000   118.0000 </r>
       <r>   -11.3557     0.0000   118.0000 </r>
       <r>   -11.2532     0.0000   118.0000 </r>
       <r>   -11.1507     0.0000   118.0000 </r>
       <r>   -11.0481    31.9786   121.2786 </r>
       <r>   -10.9456    34.0040   125.9530 </r>
       <r>   -10.8431    21.5289   130.7740 </r>
       <r>   -10.7405     0.0000   132.0000 </r>
       <r>   -10.6380    58.5096   137.9988 </r>
       <r>   -10.5355     0.8047   138.0825 </r>
       <r>   -10.4330    13.2909   139.8627 </r>
       <r>   -10.3304    39.7898   145.4796 </r>
       <r>   -10.2279    50.5266   152.3471 </r>
       <r>   -10.1254     0.0000   154.0000 </r>
       <r>   -10.0229     0.0000   154.0000 </r>
       <r>    -9.9203    20.7609   156.1285 </r>
       <r>    -9.8178     0.0000   160.0000 </r>
       <r>    -9.7153     0.0090   160.0009 </r>
       <r>    -9.6128    79.3731   168.5046 </r>
       <r>    -9.5102    26.4280   172.7096 </r>
       <r>    -9.4077     8.3974   173.6943 </r>
       <r>    -9.3052     8.4319   174.7645 </r>
       <r>    -9.2027     3.5177   175.3607 </r>
       <r>    -9.1001     5.3408   175.9809 </r>
       <r>    -8.9976     0.0000   176.0000 </r>
       <r>    -8.8951     0.0000   176.0000 </r>
       <r>    -8.7926    24.5135   178.5133 </r>
       <r>    -8.6900     3.6420   179.0067 </r>
       <r>    -8.5875     8.5173   180.2399 </r>
       <r>    -8.4850     8.0452   181.3248 </r>
       <r>    -8.3825    82.9058   190.0000 </r>
       <r>    -8.2799     0.0000   190.0000 </r>
       <r>    -8.1774     0.4793   190.0491 </r>
       <r>    -8.0749    19.7546   192.5254 </r>
       <r>    -7.9723    26.0093   196.0000 </r>
       <r>    -7.8698     0.0000   196.0000 </r>
       <r>    -7.7673     0.0000   196.0000 </r>
       <r>    -7.6648     0.0000   196.0000 </r>
       <r>    -7.5622     0.0000   196.0000 </r>
       <r>    -7.4597     0.0000   196.0000 </r>
       <r>    -7.3572     0.0000   196.0000 </r>
       <r>    -7.2547     0.0000   196.0000 </r>
       <r>    -7.1521     0.0000   196.0000 </r>
       <r>    -7.0496    77.3330   203.9286 </r>
       <r>    -6.9471     5.2513   204.5384 </r>
       <r>    -6.8446     0.0000   210.0000 </r>
       <r>    -6.7420     0.0000   210.0000 </r>
       <r>    -6.6395     0.0000   210.0000 </r>
       <r>    -6.5370     0.0000   210.0000 </r>
       <r>    -6.4345    58.5217   216.0000 </r>
       <r>    -6.3319     0.0000   216.0000 </r>
       <r>    -6.2294    23.8193   218.4421 </r>
       <r>    -6.1269     8.4528   220.0000 </r>
       <r>    -6.0244     0.5765   220.0591 </r>
       <r>    -5.9218    21.2284   224.5098 </r>
       <r>    -5.8193    26.0093   228.0000 </r>
       <r>    -5.7168     0.0000   228.0000 </r>
       <r>    -5.6142     0.0000   228.0000 </r>
       <r>    -5.5117     0.0000   228.0000 </r>
       <r>    -5.4092     0.0000   228.0000 </r>
       <r>    -5.3067     0.0000   228.0000 </r>
       <r>    -5.2041    55.8036   233.7213 </r>
       <r>    -5.1016     0.0000   234.0000 </r>
       <r>    -4.9991     0.0000   234.0000 </r>
       <r>    -4.8966     0.0000   234.0000 </r>
       <r>    -4.7940     0.0000   234.0000 </r>
       <r>    -4.6915     0.0000   234.0000 </r>
       <r>    -4.5890     0.0000   234.0000 </r>
       <r>    -4.4865     0.0000   234.0000 </r>
       <r>    -4.3839     0.0000   234.0000 </r>
       <r>    -4.2814     0.0000   234.0000 </r>
       <r>    -4.1789     0.0000   234.0000 </r>
       <r>    -4.0764     0.0000   234.0000 </r>
       <r>    -3.9738     0.0000   234.0000 </r>
       <r>    -3.8713     0.0000   234.0000 </r>
       <r>    -3.7688     0.0000   234.0000 </r>
       <r>    -3.6663    15.2546   235.5640 </r>
       <r>    -3.5637    11.3399   237.7293 </r>
       <r>    -3.4612    11.0644   239.2011 </r>
       <r>    -3.3587    25.6845   242.0000 </r>
       <r>    -3.2562     0.0000   242.0000 </r>
       <r>    -3.1536     0.0000   242.0000 </r>
       <r>    -3.0511     0.0000   242.0000 </r>
       <r>    -2.9486     0.0000   242.0000 </r>
       <r>    -2.8460     0.0000   242.0000 </r>
       <r>    -2.7435     0.0000   242.0000 </r>
       <r>    -2.6410     0.0000   242.0000 </r>
       <r>    -2.5385     0.0000   242.0000 </r>
       <r>    -2.4359     0.0000   242.0000 </r>
       <r>    -2.3334     0.0000   242.0000 </r>
       <r>    -2.2309     0.0000   242.0000 </r>
       <r>    -2.1284     4.1226   242.4227 </r>
       <r>    -2.0258     3.1756   242.8923 </r>
       <r>    -1.9233     7.4123   243.7266 </r>
       <r>    -1.8208     5.1658   244.3630 </r>
       <r>    -1.7183     5.7490   245.0894 </r>
       <r>    -1.6157     2.3304   245.3723 </r>
       <r>    -1.5132     2.4297   245.6824 </r>
       <r>    -1.4107     2.2757   246.0000 </r>
       <r>    -1.3082    58.5217   252.0000 </r>
       <r>    -1.2056     0.0000   252.0000 </r>
       <r>    -1.1031     0.0000   252.0000 </r>
       <r>    -1.0006    23.1524   254.3737 </r>
       <r>    -0.8981     2.2148   254.6604 </r>
       <r>    -0.7955     1.9855   254.9369 </r>
       <r>    -0.6930     6.3847   255.6546 </r>
       <r>    -0.5905     4.6219   256.2406 </r>
       <r>    -0.4879     6.5991   257.0433 </r>
       <r>    -0.3854    25.9960   259.7986 </r>
       <r>    -0.2829    11.7715   261.8402 </r>
       <r>    -0.1804     0.0000   262.0000 </r>
       <r>    -0.0778     0.0000   262.0000 </r>
       <r>     0.0247    22.0025   264.2558 </r>
       <r>     0.1272     8.8149   266.0038 </r>
       <r>     0.2297    22.9598   268.6207 </r>
       <r>     0.3323    11.3794   270.0000 </r>
       <r>     0.4348    58.2943   275.9767 </r>
       <r>     0.5373    26.1904   279.0852 </r>
       <r>     0.6398    45.3415   284.5154 </r>
       <r>     0.7424    50.3210   291.2593 </r>
       <r>     0.8449    28.8805   295.1610 </r>
       <r>     0.9474    41.2529   301.2962 </r>
       <r>     1.0499    42.0880   307.3152 </r>
       <r>     1.1525    55.5320   314.1269 </r>
       <r>     1.2550    29.6734   318.6757 </r>
       <r>     1.3575     4.8764   320.0000 </r>
       <r>     1.4600     0.0000   320.0000 </r>
       <r>     1.5626     0.0000   320.0000 </r>
       <r>     1.6651     0.0000   320.0000 </r>
       <r>     1.7676     0.0000   320.0000 </r>
       <r>     1.8701     0.0000   320.0000 </r>
       <r>     1.9727     0.0000   320.0000 </r>
       <r>     2.0752     0.0000   320.0000 </r>
       <r>     2.1777     0.0000   320.0000 </r>
       <r>     2.2803     0.0000   320.0000 </r>
       <r>     2.3828     0.0000   320.0000 </r>
       <r>     2.4853     0.0000   320.0000 </r>
       <r>     2.5878     0.0000   320.0000 </r>
       <r>     2.6904     0.0000   320.0000 </r>
      </set>
     </set>
    </array>
   </total>
  </dos>
 </calculation>
 <structure name="finalpos" >
  <crystal>
   <varray name="basis" >
    <v>      21.68936397      -0.01746987       0.00000000 </v>
    <v>     -10.85997601      18.78548984       0.00000000 </v>
    <v>       0.00000000       0.00000000      20.00000000 </v>
   </varray>
   <i name="volume">   8145.11208429 </i>
   <varray name="rec_basis" >
    <v>       0.04612703       0.02666624       0.00000000 </v>
    <v>       0.00004290       0.05325737       0.00000000 </v>
    <v>       0.00000000       0.00000000       0.05000000 </v>
   </varray>
  </crystal>
  <varray name="positions" >
   <v>       0.42702503       0.36334830       0.47861062 </v>
   <v>       0.36476005       0.42909963       0.50859182 </v>
   <v>       0.36789905       0.53460699       0.53146884 </v>
   <v>       0.93474250       0.56391866       0.47815808 </v>
   <v>       0.06293770       0.62620259       0.50811295 </v>
   <v>       0.16513725       0.62323853       0.53105770 </v>
   <v>       0.62757812       0.05680542       0.47734435 </v>
   <v>       0.56197216       0.92895397       0.50834456 </v>
   <v>       0.45683034       0.82676834       0.53216348 </v>
   <v>       0.62808705       0.56027170       0.48623483 </v>
   <v>       0.56585886       0.62602402       0.51623492 </v>
   <v>       0.62501205       0.45490379       0.46362610 </v>
   <v>       0.93024014       0.36294967       0.48610624 </v>
   <v>       0.05844059       0.42523324       0.51614595 </v>
   <v>       0.82788611       0.36601662       0.46307868 </v>
   <v>       0.43067415       0.06058237       0.48575870 </v>
   <v>       0.36507195       0.93272150       0.51682194 </v>
   <v>       0.53600112       0.16291493       0.46202474 </v>
   <v>       0.48473954       0.30385584       0.45574727 </v>
   <v>       0.68740026       0.17456547       0.45612561 </v>
   <v>       0.81752785       0.50637600       0.45657003 </v>
   <v>       0.50835766       0.68556769       0.53884947 </v>
   <v>       0.30551360       0.81510634       0.53945941 </v>
   <v>       0.17575726       0.48313106       0.53971323 </v>
   <v>       0.71918104       0.31582781       0.45056208 </v>
   <v>       0.67554895       0.39680384       0.45149295 </v>
   <v>       0.59441391       0.27202020       0.45055285 </v>
   <v>       0.27389454       0.67377374       0.54433960 </v>
   <v>       0.31771022       0.59298744       0.54396363 </v>
   <v>       0.39872742       0.71773707       0.54425454 </v>
   <v>       0.42226592       0.56553214       0.52970162 </v>
   <v>       0.14173081       0.56890348       0.52941807 </v>
   <v>       0.42573567       0.84994847       0.53045607 </v>
   <v>       0.57063914       0.42390426       0.46522403 </v>
   <v>       0.85136975       0.42034524       0.46504670 </v>
   <v>       0.56706401       0.13971661       0.46401054 </v>
   <v>       0.72827436       0.38187064       0.45135847 </v>
   <v>       0.60941676       0.33970284       0.45129196 </v>
   <v>       0.80407159       0.44408466       0.45701775 </v>
   <v>       0.54702420       0.35292338       0.45675631 </v>
   <v>       0.63816623       0.18742118       0.45628489 </v>
   <v>       0.26487821       0.60776621       0.54384796 </v>
   <v>       0.38379345       0.65005451       0.54374394 </v>
   <v>       0.18910393       0.54538075       0.53835892 </v>
   <v>       0.44603455       0.63659397       0.53806985 </v>
   <v>       0.35473348       0.80222930       0.53872005 </v>
   <v>       0.42272373       0.45785135       0.50376878 </v>
   <v>       0.45700512       0.42054099       0.48685407 </v>
   <v>       0.46113772       0.53192299       0.51441335 </v>
   <v>       0.03358376       0.56825742       0.50334512 </v>
   <v>       0.96190257       0.53396160       0.48645375 </v>
   <v>       0.06918436       0.52988943       0.51411697 </v>
   <v>       0.53321146       0.95807392       0.50349406 </v>
   <v>       0.57043648       0.02957499       0.48599957 </v>
   <v>       0.45920083       0.92236651       0.51468238 </v>
   <v>       0.65144619       0.26304086       0.45075351 </v>
   <v>       0.34161498       0.72661733       0.54412368 </v>
   <v>       0.53171552       0.45746219       0.48046211 </v>
   <v>       0.57012724       0.53152871       0.49109165 </v>
   <v>       0.53585231       0.56883698       0.50801287 </v>
   <v>       0.92397424       0.45926013       0.48020906 </v>
   <v>       0.95959637       0.42089621       0.49088891 </v>
   <v>       0.03128450       0.45519520       0.50780932 </v>
   <v>       0.53349101       0.06723691       0.47961099 </v>
   <v>       0.45945498       0.03149086       0.49067624 </v>
   <v>       0.42222505       0.95998151       0.50819022 </v>
  </varray>
 </structure>
</modeling>
