<?xml version="1.0" encoding="ISO-8859-1"?>
<modeling>
 <generator>
  <i name="program" type="string">vasp </i>
  <i name="version" type="string">5.4.4.18Apr17-6-g9f103f2a35  </i>
  <i name="subversion" type="string">(build Jun 07 2020 16:50:00) complex            parallel </i>
  <i name="platform" type="string">LinuxIFC </i>
  <i name="date" type="string">2023 03 01 </i>
  <i name="time" type="string">21:26:43 </i>
 </generator>
 <incar>
  <i type="string" name="SYSTEM">Simulation for cell shape cell volume r</i>
  <i type="int" name="ISTART">     1</i>
  <i type="string" name="PREC">high</i>
  <i type="string" name="ALGO">48</i>
  <i type="int" name="ICHARG">    11</i>
  <i type="int" name="NELM">   200</i>
  <i type="int" name="IBRION">    -1</i>
  <i name="EDIFF">      0.00001000</i>
  <i name="EDIFFG">     -0.01000000</i>
  <i type="int" name="NSW">     0</i>
  <i type="int" name="ISIF">     2</i>
  <i name="ENCUT">    500.00000000</i>
  <i name="POTIM">      0.30000000</i>
  <i type="string" name="LREAL">A</i>
  <i type="int" name="ISMEAR">     0</i>
  <i name="SIGMA">      0.01000000</i>
  <i type="int" name="NWRITE">     0</i>
  <i type="logical" name="LWAVE"> F  </i>
  <i type="logical" name="LCHARG"> F  </i>
  <v type="int" name="KPOINT_BSE">    -1     0     0     0</v>
  <i type="int" name="NELM">   200</i>
  <i type="string" name="GGA">PE</i>
 </incar>
 <structure name="primitive_cell" >
  <crystal>
   <varray name="basis" >
    <v>      23.54705411      -0.00030636       0.00000000 </v>
    <v>     -11.77374195      20.39209022       0.00000000 </v>
    <v>       0.00000000       0.00000000      20.00000000 </v>
   </varray>
   <i name="volume">   9603.40089749 </i>
   <varray name="rec_basis" >
    <v>       0.04246848       0.02451994       0.00000000 </v>
    <v>       0.00000064       0.04903899       0.00000000 </v>
    <v>       0.00000000       0.00000000       0.05000000 </v>
   </varray>
  </crystal>
  <varray name="positions" >
   <v>       0.37368806      -0.37994985       0.49001656 </v>
   <v>       0.40043391      -0.40670239       0.49018698 </v>
   <v>       0.46908138      -0.37149051       0.49036296 </v>
   <v>       0.36521838      -0.47535127       0.49029009 </v>
   <v>       0.29251739       0.49638995       0.49030195 </v>
   <v>       0.49735314      -0.29878421       0.49036141 </v>
   <v>      -0.49809073      -0.26612659       0.43016166 </v>
   <v>       0.25975960       0.49155008       0.43009916 </v>
   <v>       0.25981409       0.49163542      -0.44947296 </v>
   <v>      -0.49760140      -0.26596835      -0.44941627 </v>
   <v>      -0.49715869      -0.40616074       0.49055539 </v>
   <v>       0.39986675       0.49086670       0.49042969 </v>
   <v>       0.49948805      -0.29024652       0.38277080 </v>
   <v>       0.28380125       0.49375195       0.38271676 </v>
   <v>       0.28389926       0.49390218      -0.40210584 </v>
   <v>      -0.49965457      -0.28997096      -0.40205377 </v>
   <v>       0.37369868      -0.22127835       0.49034935 </v>
   <v>       0.21500451      -0.37994985       0.49024728 </v>
   <v>      -0.49806324      -0.20677660       0.43022176 </v>
   <v>       0.20041396       0.49153745       0.43010977 </v>
   <v>       0.20046916       0.49162594      -0.44946155 </v>
   <v>      -0.49759729      -0.20662148      -0.44935390 </v>
   <v>       0.46915910      -0.47545544       0.49052547 </v>
   <v>       0.17250615       0.49637331       0.49032137 </v>
   <v>       0.49737407      -0.17876379       0.49048163 </v>
   <v>      -0.44378653      -0.37824962       0.49070558 </v>
   <v>       0.37192837       0.43749022       0.49044165 </v>
   <v>       0.49953705      -0.18499873       0.38287982 </v>
   <v>       0.17856652       0.49374033       0.38273746 </v>
   <v>       0.17866120       0.49389731      -0.40208614 </v>
   <v>      -0.49967091      -0.18474683      -0.40194664 </v>
   <v>       0.40044218      -0.16777821       0.49041215 </v>
   <v>       0.16150551      -0.40670180       0.49029414 </v>
   <v>       0.46909348      -0.13434250       0.49055052 </v>
   <v>       0.12807614      -0.47535430       0.49031718 </v>
   <v>      -0.49425401       0.48798064       0.49053339 </v>
   <v>       0.36522736      -0.13434760       0.49037303 </v>
   <v>       0.12806540      -0.37149685       0.49035500 </v>
   <v>       0.29251658      -0.17877160       0.49034386 </v>
   <v>       0.17248439      -0.29878615       0.49036073 </v>
   <v>      -0.39705551      -0.42495256       0.49027147 </v>
   <v>       0.41870921       0.39076124       0.49084665 </v>
   <v>       0.25975935      -0.20670150       0.43014130 </v>
   <v>       0.20040782      -0.26603804       0.43015145 </v>
   <v>       0.25977392      -0.20669963      -0.44944160 </v>
   <v>       0.20042911      -0.26604157      -0.44943172 </v>
   <v>      -0.42495993      -0.47832543       0.49036034 </v>
   <v>       0.47208019       0.41868620       0.49064263 </v>
   <v>       0.28379909      -0.18488497       0.38275384 </v>
   <v>       0.17856340      -0.29008768       0.38277748 </v>
   <v>       0.28382861      -0.18486388      -0.40206733 </v>
   <v>       0.17860332      -0.29009142      -0.40205122 </v>
   <v>      -0.49713797      -0.06591758       0.49067339 </v>
   <v>       0.05965012       0.49086460       0.49035378 </v>
   <v>       0.03422832       0.43749226       0.49033118 </v>
   <v>      -0.44376545      -0.04047479       0.49081792 </v>
   <v>       0.39989020      -0.06592089       0.49040118 </v>
   <v>       0.05963817      -0.40617327       0.49042980 </v>
   <v>       0.46918234      -0.03030749       0.49056590 </v>
   <v>       0.02402911      -0.47546706       0.49040753 </v>
   <v>      -0.39028289       0.48792307       0.49027205 </v>
   <v>      -0.49414282       0.38403316       0.49043951 </v>
   <v>       0.37195878      -0.04047986       0.49027595 </v>
   <v>       0.03417946      -0.37826150       0.49050733 </v>
   <v>      -0.42549248       0.41926814       0.49024608 </v>
   <v>      -0.31757081      -0.48379374       0.49027456 </v>
   <v>       0.47758984       0.31132405       0.49037678 </v>
   <v>      -0.49423734       0.04283853       0.49054824 </v>
   <v>      -0.04911791       0.48796403       0.49043592 </v>
   <v>      -0.39703444       0.05297089       0.49035948 </v>
   <v>      -0.05926114       0.39075815       0.49061955 </v>
   <v>      -0.30878861      -0.48107916       0.38269516 </v>
   <v>       0.47436258       0.30230515      -0.40205359 </v>
   <v>      -0.30897369      -0.48132901      -0.40213317 </v>
   <v>       0.47564927       0.30296481       0.38278060 </v>
   <v>      -0.39872622       0.39253684       0.49010859 </v>
   <v>      -0.42494571       0.07843405       0.49041010 </v>
   <v>      -0.08472286       0.41867039       0.49053688 </v>
   <v>      -0.28478207      -0.47892998       0.43008514 </v>
   <v>       0.47242186       0.27839901      -0.44944706 </v>
   <v>      -0.28488289      -0.47906204      -0.44949516 </v>
   <v>       0.47315044       0.27876445       0.43013699 </v>
   <v>       0.41872775       0.05303461       0.49080059 </v>
   <v>      -0.05930342      -0.42499159       0.49020806 </v>
   <v>       0.47209841       0.07846106       0.49061982 </v>
   <v>      -0.08473575      -0.47836360       0.49032988 </v>
   <v>      -0.39027057       0.14686091       0.49029028 </v>
   <v>      -0.15315077       0.38400247       0.49051032 </v>
   <v>      -0.22545787      -0.47896724       0.43011362 </v>
   <v>       0.47244030       0.21906163      -0.44944619 </v>
   <v>      -0.22556303      -0.47909847      -0.44946610 </v>
   <v>       0.47316130       0.21943570       0.43013439 </v>
   <v>      -0.49411491       0.14689066       0.49042253 </v>
   <v>      -0.15316745       0.48785612       0.49036940 </v>
   <v>      -0.19758972      -0.48385978       0.49033117 </v>
   <v>       0.47761305       0.19131958       0.49037119 </v>
   <v>      -0.20360239      -0.48116276       0.38274233 </v>
   <v>       0.47442000       0.19711651      -0.40205301 </v>
   <v>      -0.20377637      -0.48137971      -0.40208392 </v>
   <v>       0.47566653       0.19774567       0.38277421 </v>
   <v>      -0.42546676       0.18030988       0.49022938 </v>
   <v>      -0.18659737       0.41920379       0.49045610 </v>
   <v>      -0.31756717       0.19127651       0.49028157 </v>
   <v>      -0.19756919       0.31129567       0.49043840 </v>
   <v>      -0.30884737       0.19713996      -0.40213290 </v>
   <v>      -0.20373200       0.30286981       0.38284301 </v>
   <v>      -0.20363807       0.30237838      -0.40199342 </v>
   <v>      -0.30895323       0.19765332       0.38270173 </v>
   <v>      -0.28480267       0.21907071      -0.44948286 </v>
   <v>      -0.22553314       0.27869397       0.43017711 </v>
   <v>      -0.22547131       0.27842209      -0.44940494 </v>
   <v>      -0.28486644       0.21935571       0.43009874 </v>
   <v>      -0.39869107       0.23381346       0.49007951 </v>
   <v>      -0.24009977       0.39243411       0.49046078 </v>
  </varray>
 </structure>
 <varray name="primitive_index" >
  <v type="int" >        1 </v>
  <v type="int" >       44 </v>
  <v type="int" >       45 </v>
  <v type="int" >       54 </v>
  <v type="int" >       52 </v>
  <v type="int" >       49 </v>
  <v type="int" >       48 </v>
  <v type="int" >       50 </v>
  <v type="int" >       58 </v>
  <v type="int" >       55 </v>
  <v type="int" >       46 </v>
  <v type="int" >       53 </v>
  <v type="int" >        3 </v>
  <v type="int" >        6 </v>
  <v type="int" >       11 </v>
  <v type="int" >        8 </v>
  <v type="int" >       13 </v>
  <v type="int" >       14 </v>
  <v type="int" >       47 </v>
  <v type="int" >       51 </v>
  <v type="int" >       57 </v>
  <v type="int" >       56 </v>
  <v type="int" >       43 </v>
  <v type="int" >       64 </v>
  <v type="int" >       63 </v>
  <v type="int" >        2 </v>
  <v type="int" >        7 </v>
  <v type="int" >        4 </v>
  <v type="int" >        5 </v>
  <v type="int" >       10 </v>
  <v type="int" >        9 </v>
  <v type="int" >       59 </v>
  <v type="int" >       60 </v>
  <v type="int" >       66 </v>
  <v type="int" >       61 </v>
  <v type="int" >       91 </v>
  <v type="int" >       71 </v>
  <v type="int" >       86 </v>
  <v type="int" >       77 </v>
  <v type="int" >       78 </v>
  <v type="int" >       37 </v>
  <v type="int" >       28 </v>
  <v type="int" >       76 </v>
  <v type="int" >       75 </v>
  <v type="int" >       87 </v>
  <v type="int" >       88 </v>
  <v type="int" >      108 </v>
  <v type="int" >       92 </v>
  <v type="int" >       19 </v>
  <v type="int" >       20 </v>
  <v type="int" >       24 </v>
  <v type="int" >       25 </v>
  <v type="int" >       65 </v>
  <v type="int" >       62 </v>
  <v type="int" >       15 </v>
  <v type="int" >       16 </v>
  <v type="int" >       72 </v>
  <v type="int" >       85 </v>
  <v type="int" >       70 </v>
  <v type="int" >       74 </v>
  <v type="int" >      107 </v>
  <v type="int" >       93 </v>
  <v type="int" >       18 </v>
  <v type="int" >       23 </v>
  <v type="int" >       94 </v>
  <v type="int" >      106 </v>
  <v type="int" >      101 </v>
  <v type="int" >       67 </v>
  <v type="int" >       73 </v>
  <v type="int" >       12 </v>
  <v type="int" >       17 </v>
  <v type="int" >       36 </v>
  <v type="int" >       39 </v>
  <v type="int" >       42 </v>
  <v type="int" >       33 </v>
  <v type="int" >       29 </v>
  <v type="int" >       68 </v>
  <v type="int" >       84 </v>
  <v type="int" >      103 </v>
  <v type="int" >      111 </v>
  <v type="int" >      114 </v>
  <v type="int" >      100 </v>
  <v type="int" >       38 </v>
  <v type="int" >       31 </v>
  <v type="int" >      110 </v>
  <v type="int" >       96 </v>
  <v type="int" >       69 </v>
  <v type="int" >       83 </v>
  <v type="int" >      104 </v>
  <v type="int" >      112 </v>
  <v type="int" >      113 </v>
  <v type="int" >       99 </v>
  <v type="int" >      109 </v>
  <v type="int" >       97 </v>
  <v type="int" >      105 </v>
  <v type="int" >      102 </v>
  <v type="int" >       35 </v>
  <v type="int" >       40 </v>
  <v type="int" >       41 </v>
  <v type="int" >       34 </v>
  <v type="int" >       95 </v>
  <v type="int" >       98 </v>
  <v type="int" >       81 </v>
  <v type="int" >       82 </v>
  <v type="int" >       26 </v>
  <v type="int" >       22 </v>
  <v type="int" >       27 </v>
  <v type="int" >       21 </v>
  <v type="int" >       89 </v>
  <v type="int" >       79 </v>
  <v type="int" >       90 </v>
  <v type="int" >       80 </v>
  <v type="int" >       30 </v>
  <v type="int" >       32 </v>
 </varray>
 <kpoints>
  <generation param="listgenerated">
   <i name="divisions" type="int">      20 </i>
   <v>       0.00000000       0.00000000       0.00000000 </v>
   <v>       0.50000000       0.00000000       0.00000000 </v>
   <v>       0.33333333       0.33333333       0.00000000 </v>
   <v>       0.00000000       0.00000000       0.00000000 </v>
  </generation>
  <varray name="kpointlist" >
   <v>       0.00000000       0.00000000       0.00000000 </v>
   <v>       0.02631579       0.00000000       0.00000000 </v>
   <v>       0.05263158       0.00000000       0.00000000 </v>
   <v>       0.07894737       0.00000000       0.00000000 </v>
   <v>       0.10526316       0.00000000       0.00000000 </v>
   <v>       0.13157895       0.00000000       0.00000000 </v>
   <v>       0.15789474       0.00000000       0.00000000 </v>
   <v>       0.18421053       0.00000000       0.00000000 </v>
   <v>       0.21052632       0.00000000       0.00000000 </v>
   <v>       0.23684211       0.00000000       0.00000000 </v>
   <v>       0.26315789       0.00000000       0.00000000 </v>
   <v>       0.28947368       0.00000000       0.00000000 </v>
   <v>       0.31578947       0.00000000       0.00000000 </v>
   <v>       0.34210526       0.00000000       0.00000000 </v>
   <v>       0.36842105       0.00000000       0.00000000 </v>
   <v>       0.39473684       0.00000000       0.00000000 </v>
   <v>       0.42105263       0.00000000       0.00000000 </v>
   <v>       0.44736842       0.00000000       0.00000000 </v>
   <v>       0.47368421       0.00000000       0.00000000 </v>
   <v>       0.50000000       0.00000000       0.00000000 </v>
   <v>       0.50000000       0.00000000       0.00000000 </v>
   <v>       0.49122807       0.01754386       0.00000000 </v>
   <v>       0.48245614       0.03508772       0.00000000 </v>
   <v>       0.47368421       0.05263158       0.00000000 </v>
   <v>       0.46491228       0.07017544       0.00000000 </v>
   <v>       0.45614035       0.08771930       0.00000000 </v>
   <v>       0.44736842       0.10526316       0.00000000 </v>
   <v>       0.43859649       0.12280702       0.00000000 </v>
   <v>       0.42982456       0.14035088       0.00000000 </v>
   <v>       0.42105263       0.15789474       0.00000000 </v>
   <v>       0.41228070       0.17543860       0.00000000 </v>
   <v>       0.40350877       0.19298246       0.00000000 </v>
   <v>       0.39473684       0.21052632       0.00000000 </v>
   <v>       0.38596491       0.22807018       0.00000000 </v>
   <v>       0.37719298       0.24561404       0.00000000 </v>
   <v>       0.36842105       0.26315789       0.00000000 </v>
   <v>       0.35964912       0.28070175       0.00000000 </v>
   <v>       0.35087719       0.29824561       0.00000000 </v>
   <v>       0.34210526       0.31578947       0.00000000 </v>
   <v>       0.33333333       0.33333333       0.00000000 </v>
   <v>       0.33333333       0.33333333       0.00000000 </v>
   <v>       0.31578947       0.31578947       0.00000000 </v>
   <v>       0.29824561       0.29824561       0.00000000 </v>
   <v>       0.28070175       0.28070175       0.00000000 </v>
   <v>       0.26315789       0.26315789       0.00000000 </v>
   <v>       0.24561404       0.24561404       0.00000000 </v>
   <v>       0.22807018       0.22807018       0.00000000 </v>
   <v>       0.21052632       0.21052632       0.00000000 </v>
   <v>       0.19298246       0.19298246       0.00000000 </v>
   <v>       0.17543860       0.17543860       0.00000000 </v>
   <v>       0.15789474       0.15789474       0.00000000 </v>
   <v>       0.14035088       0.14035088       0.00000000 </v>
   <v>       0.12280702       0.12280702       0.00000000 </v>
   <v>       0.10526316       0.10526316       0.00000000 </v>
   <v>       0.08771930       0.08771930       0.00000000 </v>
   <v>       0.07017544       0.07017544       0.00000000 </v>
   <v>       0.05263158       0.05263158       0.00000000 </v>
   <v>       0.03508772       0.03508772       0.00000000 </v>
   <v>       0.01754386       0.01754386       0.00000000 </v>
   <v>       0.00000000       0.00000000       0.00000000 </v>
  </varray>
  <varray name="weights" >
   <v>       0.01666667 </v>
   <v>       0.01666667 </v>
   <v>       0.01666667 </v>
   <v>       0.01666667 </v>
   <v>       0.01666667 </v>
   <v>       0.01666667 </v>
   <v>       0.01666667 </v>
   <v>       0.01666667 </v>
   <v>       0.01666667 </v>
   <v>       0.01666667 </v>
   <v>       0.01666667 </v>
   <v>       0.01666667 </v>
   <v>       0.01666667 </v>
   <v>       0.01666667 </v>
   <v>       0.01666667 </v>
   <v>       0.01666667 </v>
   <v>       0.01666667 </v>
   <v>       0.01666667 </v>
   <v>       0.01666667 </v>
   <v>       0.01666667 </v>
   <v>       0.01666667 </v>
   <v>       0.01666667 </v>
   <v>       0.01666667 </v>
   <v>       0.01666667 </v>
   <v>       0.01666667 </v>
   <v>       0.01666667 </v>
   <v>       0.01666667 </v>
   <v>       0.01666667 </v>
   <v>       0.01666667 </v>
   <v>       0.01666667 </v>
   <v>       0.01666667 </v>
   <v>       0.01666667 </v>
   <v>       0.01666667 </v>
   <v>       0.01666667 </v>
   <v>       0.01666667 </v>
   <v>       0.01666667 </v>
   <v>       0.01666667 </v>
   <v>       0.01666667 </v>
   <v>       0.01666667 </v>
   <v>       0.01666667 </v>
   <v>       0.01666667 </v>
   <v>       0.01666667 </v>
   <v>       0.01666667 </v>
   <v>       0.01666667 </v>
   <v>       0.01666667 </v>
   <v>       0.01666667 </v>
   <v>       0.01666667 </v>
   <v>       0.01666667 </v>
   <v>       0.01666667 </v>
   <v>       0.01666667 </v>
   <v>       0.01666667 </v>
   <v>       0.01666667 </v>
   <v>       0.01666667 </v>
   <v>       0.01666667 </v>
   <v>       0.01666667 </v>
   <v>       0.01666667 </v>
   <v>       0.01666667 </v>
   <v>       0.01666667 </v>
   <v>       0.01666667 </v>
   <v>       0.01666667 </v>
  </varray>
 </kpoints>
 <parameters>
  <separator name="general" >
   <i type="string" name="SYSTEM">Simulation for cell shape cell volume r</i>
   <i type="logical" name="LCOMPAT"> F  </i>
  </separator>
  <separator name="electronic" >
   <i type="string" name="PREC">high</i>
   <i name="ENMAX">    500.00000000</i>
   <i name="ENAUG">    644.87300000</i>
   <i name="EDIFF">      0.00001000</i>
   <i type="int" name="IALGO">    38</i>
   <i type="int" name="IWAVPR">    10</i>
   <i type="int" name="NBANDS">   224</i>
   <i name="NELECT">    330.00000000</i>
   <i type="int" name="TURBO">     0</i>
   <i type="int" name="IRESTART">     0</i>
   <i type="int" name="NREBOOT">     0</i>
   <i type="int" name="NMIN">     0</i>
   <i name="EREF">      0.00000000</i>
   <separator name="electronic smearing" >
    <i type="int" name="ISMEAR">     0</i>
    <i name="SIGMA">      0.01000000</i>
    <i name="KSPACING">      0.50000000</i>
    <i type="logical" name="KGAMMA"> T  </i>
   </separator>
   <separator name="electronic projectors" >
    <i type="logical" name="LREAL"> T  </i>
    <v name="ROPT">     -0.00040000     -0.00040000</v>
    <i type="int" name="LMAXPAW">  -100</i>
    <i type="int" name="LMAXMIX">     2</i>
    <i type="logical" name="NLSPLINE"> F  </i>
   </separator>
   <separator name="electronic startup" >
    <i type="int" name="ISTART">     1</i>
    <i type="int" name="ICHARG">    11</i>
    <i type="int" name="INIWAV">     1</i>
   </separator>
   <separator name="electronic spin" >
    <i type="int" name="ISPIN">     1</i>
    <i type="logical" name="LNONCOLLINEAR"> F  </i>
    <v name="MAGMOM">      1.00000000      1.00000000      1.00000000      1.00000000      1.00000000      1.00000000      1.00000000      1.00000000      1.00000000      1.00000000      1.00000000      1.00000000      1.00000000      1.00000000      1.00000000      1.00000000      1.00000000      1.00000000      1.00000000      1.00000000
      1.00000000      1.00000000      1.00000000      1.00000000      1.00000000      1.00000000      1.00000000      1.00000000      1.00000000      1.00000000      1.00000000      1.00000000      1.00000000      1.00000000      1.00000000      1.00000000      1.00000000      1.00000000      1.00000000      1.00000000
      1.00000000      1.00000000      1.00000000      1.00000000      1.00000000      1.00000000      1.00000000      1.00000000      1.00000000      1.00000000      1.00000000      1.00000000      1.00000000      1.00000000      1.00000000      1.00000000      1.00000000      1.00000000      1.00000000      1.00000000
      1.00000000      1.00000000      1.00000000      1.00000000      1.00000000      1.00000000      1.00000000      1.00000000      1.00000000      1.00000000      1.00000000      1.00000000      1.00000000      1.00000000      1.00000000      1.00000000      1.00000000      1.00000000      1.00000000      1.00000000
      1.00000000      1.00000000      1.00000000      1.00000000      1.00000000      1.00000000      1.00000000      1.00000000      1.00000000      1.00000000      1.00000000      1.00000000      1.00000000      1.00000000      1.00000000      1.00000000      1.00000000      1.00000000      1.00000000      1.00000000
      1.00000000      1.00000000      1.00000000      1.00000000      1.00000000      1.00000000      1.00000000      1.00000000      1.00000000      1.00000000      1.00000000      1.00000000      1.00000000      1.00000000</v>
    <i name="NUPDOWN">     -1.00000000</i>
    <i type="logical" name="LSORBIT"> F  </i>
    <v name="SAXIS">      0.00000000      0.00000000      1.00000000</v>
    <i type="logical" name="LSPIRAL"> F  </i>
    <v name="QSPIRAL">      0.00000000      0.00000000      0.00000000</v>
    <i type="logical" name="LZEROZ"> F  </i>
   </separator>
   <separator name="electronic exchange-correlation" >
    <i type="logical" name="LASPH"> F  </i>
    <i type="logical" name="LMETAGGA"> F  </i>
   </separator>
   <separator name="electronic convergence" >
    <i type="int" name="NELM">   200</i>
    <i type="int" name="NELMDL">     0</i>
    <i type="int" name="NELMIN">     2</i>
    <i name="ENINI">    500.00000000</i>
    <separator name="electronic convergence detail" >
     <i type="logical" name="LDIAG"> T  </i>
     <i type="logical" name="LSUBROT"> F  </i>
     <i name="WEIMIN">      0.00000000</i>
     <i name="EBREAK">      0.00000001</i>
     <i name="DEPER">      0.30000000</i>
     <i type="int" name="NRMM">     4</i>
     <i name="TIME">      0.40000000</i>
    </separator>
   </separator>
   <separator name="electronic mixer" >
    <i name="AMIX">      0.40000000</i>
    <i name="BMIX">      1.00000000</i>
    <i name="AMIN">      0.10000000</i>
    <i name="AMIX_MAG">      1.60000000</i>
    <i name="BMIX_MAG">      1.00000000</i>
    <separator name="electronic mixer details" >
     <i type="int" name="IMIX">     4</i>
     <i type="logical" name="MIXFIRST"> F  </i>
     <i type="int" name="MAXMIX">   -45</i>
     <i name="WC">    100.00000000</i>
     <i type="int" name="INIMIX">     1</i>
     <i type="int" name="MIXPRE">     1</i>
     <i type="int" name="MREMOVE">     5</i>
    </separator>
   </separator>
   <separator name="electronic dipolcorrection" >
    <i type="logical" name="LDIPOL"> F  </i>
    <i type="logical" name="LMONO"> F  </i>
    <i type="int" name="IDIPOL">     0</i>
    <i name="EPSILON">      1.00000000</i>
    <v name="DIPOL">   -100.00000000   -100.00000000   -100.00000000</v>
    <i name="EFIELD">      0.00000000</i>
   </separator>
  </separator>
  <separator name="grids" >
   <i type="int" name="NGX">   180</i>
   <i type="int" name="NGY">   180</i>
   <i type="int" name="NGZ">   150</i>
   <i type="int" name="NGXF">   270</i>
   <i type="int" name="NGYF">   270</i>
   <i type="int" name="NGZF">   224</i>
   <i type="logical" name="ADDGRID"> F  </i>
  </separator>
  <separator name="ionic" >
   <i type="int" name="NSW">     0</i>
   <i type="int" name="IBRION">    -1</i>
   <i type="int" name="MDALGO">     0</i>
   <i type="int" name="ISIF">     2</i>
   <i name="PSTRESS">      0.00000000</i>
   <i name="EDIFFG">     -0.01000000</i>
   <i type="int" name="NFREE">     0</i>
   <i name="POTIM">      0.30000000</i>
   <i name="SMASS">     -3.00000000</i>
   <i name="SCALEE">      1.00000000</i>
  </separator>
  <separator name="ionic md" >
   <i name="TEBEG">      0.00010000</i>
   <i name="TEEND">      0.00010000</i>
   <i type="int" name="NBLOCK">     1</i>
   <i type="int" name="KBLOCK">     1</i>
   <i type="int" name="NPACO">   256</i>
   <i name="APACO">     16.00000000</i>
  </separator>
  <separator name="symmetry" >
   <i type="int" name="ISYM">     2</i>
   <i name="SYMPREC">      0.00001000</i>
  </separator>
  <separator name="dos" >
   <i type="int" name="LORBIT">     0</i>
   <v name="RWIGS">     -1.00000000     -1.00000000</v>
   <i type="int" name="NEDOS">   301</i>
   <i name="EMIN">     10.00000000</i>
   <i name="EMAX">    -10.00000000</i>
   <i name="EFERMI">      0.00000000</i>
  </separator>
  <separator name="writing" >
   <i type="int" name="NWRITE">     0</i>
   <i type="logical" name="LWAVE"> F  </i>
   <i type="logical" name="LDOWNSAMPLE"> F  </i>
   <i type="logical" name="LCHARG"> F  </i>
   <i type="logical" name="LPARD"> F  </i>
   <i type="logical" name="LVTOT"> F  </i>
   <i type="logical" name="LVHAR"> F  </i>
   <i type="logical" name="LELF"> F  </i>
   <i type="logical" name="LOPTICS"> F  </i>
   <v name="STM">      0.00000000      0.00000000      0.00000000      0.00000000      0.00000000      0.00000000      0.00000000</v>
  </separator>
  <separator name="performance" >
   <i type="int" name="NPAR">    16</i>
   <i type="int" name="NSIM">     4</i>
   <i type="int" name="NBLK">    -1</i>
   <i type="logical" name="LPLANE"> T  </i>
   <i type="logical" name="LSCALAPACK"> T  </i>
   <i type="logical" name="LSCAAWARE"> F  </i>
   <i type="logical" name="LSCALU"> F  </i>
   <i type="logical" name="LASYNC"> F  </i>
   <i type="logical" name="LORBITALREAL"> F  </i>
  </separator>
  <separator name="miscellaneous" >
   <i type="int" name="IDIOT">     3</i>
   <i type="int" name="ISPECIAL">     0</i>
   <i type="logical" name="LMUSIC"> F  </i>
   <v name="POMASS">      1.00000000     12.01100000</v>
   <v name="DARWINR">      0.00000000      0.00000000</v>
   <v name="DARWINV">      1.00000000      1.00000000</v>
   <i type="logical" name="LCORR"> T  </i>
  </separator>
  <i type="logical" name="GGA_COMPAT"> T  </i>
  <i type="logical" name="LBERRY"> F  </i>
  <i type="int" name="ICORELEVEL">     0</i>
  <i type="logical" name="LDAU"> F  </i>
  <i type="int" name="I_CONSTRAINED_M">     0</i>
  <separator name="electronic exchange-correlation" >
   <i type="string" name="GGA">PE</i>
   <i type="int" name="VOSKOWN">     0</i>
   <i type="logical" name="LHFCALC"> F  </i>
   <i type="string" name="PRECFOCK"></i>
   <i type="logical" name="LSYMGRAD"> F  </i>
   <i type="logical" name="LHFONE"> F  </i>
   <i type="logical" name="LRHFCALC"> F  </i>
   <i type="logical" name="LTHOMAS"> F  </i>
   <i type="logical" name="LMODELHF"> F  </i>
   <i name="ENCUT4O">     -1.00000000</i>
   <i type="int" name="EXXOEP">     0</i>
   <i type="int" name="FOURORBIT">     0</i>
   <i name="AEXX">      0.00000000</i>
   <i name="HFALPHA">      0.00000000</i>
   <i name="MCALPHA">      0.00000000</i>
   <i name="ALDAX">      1.00000000</i>
   <i name="AGGAX">      1.00000000</i>
   <i name="ALDAC">      1.00000000</i>
   <i name="AGGAC">      1.00000000</i>
   <i type="int" name="NKREDX">     1</i>
   <i type="int" name="NKREDY">     1</i>
   <i type="int" name="NKREDZ">     1</i>
   <i type="logical" name="SHIFTRED"> F  </i>
   <i type="logical" name="ODDONLY"> F  </i>
   <i type="logical" name="EVENONLY"> F  </i>
   <i type="int" name="LMAXFOCK">     0</i>
   <i type="int" name="NMAXFOCKAE">     0</i>
   <i type="logical" name="LFOCKAEDFT"> F  </i>
   <i name="HFSCREEN">      0.00000000</i>
   <i name="HFSCREENC">      0.00000000</i>
   <i type="int" name="NBANDSGWLOW">     0</i>
  </separator>
  <separator name="vdW DFT" >
   <i type="logical" name="LUSE_VDW"> F  </i>
   <i name="Zab_VDW">     -0.84910000</i>
   <i name="PARAM1">      0.12340000</i>
   <i name="PARAM2">      1.00000000</i>
   <i name="PARAM3">      0.00000000</i>
  </separator>
  <separator name="model GW" >
   <i type="int" name="MODEL_GW">     0</i>
   <i name="MODEL_EPS0">     50.54421525</i>
   <i name="MODEL_ALPHA">      1.00000000</i>
  </separator>
  <separator name="linear response parameters" >
   <i type="logical" name="LEPSILON"> F  </i>
   <i type="logical" name="LRPA"> F  </i>
   <i type="logical" name="LNABLA"> F  </i>
   <i type="logical" name="LVEL"> F  </i>
   <i type="int" name="KINTER">     0</i>
   <i name="CSHIFT">      0.10000000</i>
   <i name="OMEGAMAX">     -1.00000000</i>
   <i name="DEG_THRESHOLD">      0.00200000</i>
   <i name="RTIME">     -0.10000000</i>
   <i name="WPLASMAI">      0.00000000</i>
   <v name="DFIELD">      0.00000000      0.00000000      0.00000000</v>
   <v name="WPLASMA">      0.00000000      0.00000000      0.00000000      0.00000000      0.00000000      0.00000000      0.00000000      0.00000000      0.00000000</v>
  </separator>
  <separator name="orbital magnetization" >
   <i type="logical" name="NUCIND"> F  </i>
   <v name="MAGPOS">      0.00000000      0.00000000      0.00000000</v>
   <i type="logical" name="LNICSALL"> T  </i>
   <i type="logical" name="ORBITALMAG"> F  </i>
   <i type="logical" name="LMAGBLOCH"> F  </i>
   <i type="logical" name="LCHIMAG"> F  </i>
   <i type="logical" name="LGAUGE"> T  </i>
   <i type="int" name="MAGATOM">     0</i>
   <v name="MAGDIPOL">      0.00000000      0.00000000      0.00000000</v>
   <v name="AVECCONST">      0.00000000      0.00000000      0.00000000</v>
  </separator>
  <separator name="response functions" >
   <i type="logical" name="LADDER"> F  </i>
   <i type="logical" name="LRPAFORCE"> F  </i>
   <i type="logical" name="LFXC"> F  </i>
   <i type="logical" name="LHARTREE"> T  </i>
   <i type="int" name="IBSE">     0</i>
   <v type="int" name="KPOINT">    -1     0     0     0</v>
   <i type="logical" name="LTCTE"> F  </i>
   <i type="logical" name="LTETE"> F  </i>
   <i type="logical" name="LTRIPLET"> F  </i>
   <i type="logical" name="LFXCEPS"> F  </i>
   <i type="logical" name="LFXHEG"> F  </i>
   <i type="int" name="NATURALO">     2</i>
   <i type="logical" name="L2ORDER"> F  </i>
   <i type="logical" name="LMP2LT"> F  </i>
   <i type="logical" name="LUSEW"> F  </i>
   <i name="ENCUTGW">     -2.00000000</i>
   <i name="ENCUTGWSOFT">     -2.00000000</i>
   <i name="ENCUTLF">     -1.00000000</i>
   <i type="int" name="LMAXMP2">    -1</i>
   <i name="SCISSOR">      0.00000000</i>
   <i type="int" name="NOMEGA">     0</i>
   <i type="int" name="NOMEGAR">     0</i>
   <i type="int" name="NBANDSGW">    -1</i>
   <i type="int" name="NBANDSO">    -1</i>
   <i type="int" name="NBANDSV">    -1</i>
   <i type="int" name="NELM">   200</i>
   <i type="int" name="NELMHF">     1</i>
   <i type="int" name="DIM">     3</i>
   <i type="int" name="ANTIRES">     0</i>
   <i name="OMEGAMAX">    -30.00000000</i>
   <i name="OMEGAMIN">    -30.00000000</i>
   <i name="OMEGATL">   -200.00000000</i>
   <i type="int" name="OMEGAGRID">   140</i>
   <i name="CSHIFT">     -0.10000000</i>
   <i type="logical" name="SELFENERGY"> F  </i>
   <i type="logical" name="LSPECTRAL"> F  </i>
   <i type="logical" name="LSPECTRALGW"> F  </i>
   <i type="logical" name="LSINGLES"> F  </i>
   <i type="logical" name="LFERMIGW"> F  </i>
   <i type="logical" name="ODDONLYGW"> F  </i>
   <i type="logical" name="EVENONLYGW"> F  </i>
   <i type="int" name="NKREDLFX">     1</i>
   <i type="int" name="NKREDLFY">     1</i>
   <i type="int" name="NKREDLFZ">     1</i>
   <i type="int" name="MAXMEM">  2800</i>
   <i type="int" name="TELESCOPE">     0</i>
   <i type="int" name="TAUPAR">     1</i>
   <i type="int" name="OMEGAPAR">    -1</i>
   <i name="LAMBDA">      1.00000000</i>
  </separator>
  <separator name="External order field" >
   <i name="OFIELD_KAPPA">      0.00000000</i>
   <v name="OFIELD_K">      0.00000000      0.00000000      0.00000000</v>
   <i name="OFIELD_Q6_NEAR">      0.00000000</i>
   <i name="OFIELD_Q6_FAR">      0.00000000</i>
   <i name="OFIELD_A">      0.00000000</i>
  </separator>
  <separator name="solvation model" >
   <i type="logical" name="LSOL"> F  </i>
  </separator>
 </parameters>
 <atominfo>
  <atoms>     114 </atoms>
  <types>       2 </types>
  <array name="atoms" >
   <dimension dim="1">ion</dimension>
   <field type="string">element</field>
   <field type="int">atomtype</field>
   <set>
    <rc><c>H </c><c>   1</c></rc>
    <rc><c>H </c><c>   1</c></rc>
    <rc><c>H </c><c>   1</c></rc>
    <rc><c>H </c><c>   1</c></rc>
    <rc><c>H </c><c>   1</c></rc>
    <rc><c>H </c><c>   1</c></rc>
    <rc><c>H </c><c>   1</c></rc>
    <rc><c>H </c><c>   1</c></rc>
    <rc><c>H </c><c>   1</c></rc>
    <rc><c>H </c><c>   1</c></rc>
    <rc><c>H </c><c>   1</c></rc>
    <rc><c>H </c><c>   1</c></rc>
    <rc><c>H </c><c>   1</c></rc>
    <rc><c>H </c><c>   1</c></rc>
    <rc><c>H </c><c>   1</c></rc>
    <rc><c>H </c><c>   1</c></rc>
    <rc><c>H </c><c>   1</c></rc>
    <rc><c>H </c><c>   1</c></rc>
    <rc><c>H </c><c>   1</c></rc>
    <rc><c>H </c><c>   1</c></rc>
    <rc><c>H </c><c>   1</c></rc>
    <rc><c>H </c><c>   1</c></rc>
    <rc><c>H </c><c>   1</c></rc>
    <rc><c>H </c><c>   1</c></rc>
    <rc><c>H </c><c>   1</c></rc>
    <rc><c>H </c><c>   1</c></rc>
    <rc><c>H </c><c>   1</c></rc>
    <rc><c>H </c><c>   1</c></rc>
    <rc><c>H </c><c>   1</c></rc>
    <rc><c>H </c><c>   1</c></rc>
    <rc><c>H </c><c>   1</c></rc>
    <rc><c>H </c><c>   1</c></rc>
    <rc><c>H </c><c>   1</c></rc>
    <rc><c>H </c><c>   1</c></rc>
    <rc><c>H </c><c>   1</c></rc>
    <rc><c>H </c><c>   1</c></rc>
    <rc><c>H </c><c>   1</c></rc>
    <rc><c>H </c><c>   1</c></rc>
    <rc><c>H </c><c>   1</c></rc>
    <rc><c>H </c><c>   1</c></rc>
    <rc><c>H </c><c>   1</c></rc>
    <rc><c>H </c><c>   1</c></rc>
    <rc><c>C </c><c>   2</c></rc>
    <rc><c>C </c><c>   2</c></rc>
    <rc><c>C </c><c>   2</c></rc>
    <rc><c>C </c><c>   2</c></rc>
    <rc><c>C </c><c>   2</c></rc>
    <rc><c>C </c><c>   2</c></rc>
    <rc><c>C </c><c>   2</c></rc>
    <rc><c>C </c><c>   2</c></rc>
    <rc><c>C </c><c>   2</c></rc>
    <rc><c>C </c><c>   2</c></rc>
    <rc><c>C </c><c>   2</c></rc>
    <rc><c>C </c><c>   2</c></rc>
    <rc><c>C </c><c>   2</c></rc>
    <rc><c>C </c><c>   2</c></rc>
    <rc><c>C </c><c>   2</c></rc>
    <rc><c>C </c><c>   2</c></rc>
    <rc><c>C </c><c>   2</c></rc>
    <rc><c>C </c><c>   2</c></rc>
    <rc><c>C </c><c>   2</c></rc>
    <rc><c>C </c><c>   2</c></rc>
    <rc><c>C </c><c>   2</c></rc>
    <rc><c>C </c><c>   2</c></rc>
    <rc><c>C </c><c>   2</c></rc>
    <rc><c>C </c><c>   2</c></rc>
    <rc><c>C </c><c>   2</c></rc>
    <rc><c>C </c><c>   2</c></rc>
    <rc><c>C </c><c>   2</c></rc>
    <rc><c>C </c><c>   2</c></rc>
    <rc><c>C </c><c>   2</c></rc>
    <rc><c>C </c><c>   2</c></rc>
    <rc><c>C </c><c>   2</c></rc>
    <rc><c>C </c><c>   2</c></rc>
    <rc><c>C </c><c>   2</c></rc>
    <rc><c>C </c><c>   2</c></rc>
    <rc><c>C </c><c>   2</c></rc>
    <rc><c>C </c><c>   2</c></rc>
    <rc><c>C </c><c>   2</c></rc>
    <rc><c>C </c><c>   2</c></rc>
    <rc><c>C </c><c>   2</c></rc>
    <rc><c>C </c><c>   2</c></rc>
    <rc><c>C </c><c>   2</c></rc>
    <rc><c>C </c><c>   2</c></rc>
    <rc><c>C </c><c>   2</c></rc>
    <rc><c>C </c><c>   2</c></rc>
    <rc><c>C </c><c>   2</c></rc>
    <rc><c>C </c><c>   2</c></rc>
    <rc><c>C </c><c>   2</c></rc>
    <rc><c>C </c><c>   2</c></rc>
    <rc><c>C </c><c>   2</c></rc>
    <rc><c>C </c><c>   2</c></rc>
    <rc><c>C </c><c>   2</c></rc>
    <rc><c>C </c><c>   2</c></rc>
    <rc><c>C </c><c>   2</c></rc>
    <rc><c>C </c><c>   2</c></rc>
    <rc><c>C </c><c>   2</c></rc>
    <rc><c>C </c><c>   2</c></rc>
    <rc><c>C </c><c>   2</c></rc>
    <rc><c>C </c><c>   2</c></rc>
    <rc><c>C </c><c>   2</c></rc>
    <rc><c>C </c><c>   2</c></rc>
    <rc><c>C </c><c>   2</c></rc>
    <rc><c>C </c><c>   2</c></rc>
    <rc><c>C </c><c>   2</c></rc>
    <rc><c>C </c><c>   2</c></rc>
    <rc><c>C </c><c>   2</c></rc>
    <rc><c>C </c><c>   2</c></rc>
    <rc><c>C </c><c>   2</c></rc>
    <rc><c>C </c><c>   2</c></rc>
    <rc><c>C </c><c>   2</c></rc>
    <rc><c>C </c><c>   2</c></rc>
    <rc><c>C </c><c>   2</c></rc>
    <rc><c>C </c><c>   2</c></rc>
   </set>
  </array>
  <array name="atomtypes" >
   <dimension dim="1">type</dimension>
   <field type="int">atomspertype</field>
   <field type="string">element</field>
   <field>mass</field>
   <field>valence</field>
   <field type="string">pseudopotential</field>
   <set>
    <rc><c>  42</c><c>H </c><c>      1.00000000</c><c>      1.00000000</c><c>  PAW_PBE H 15Jun2001                   </c></rc>
    <rc><c>  72</c><c>C </c><c>     12.01100000</c><c>      4.00000000</c><c>  PAW_PBE C 08Apr2002                   </c></rc>
   </set>
  </array>
 </atominfo>
 <structure name="initialpos" >
  <crystal>
   <varray name="basis" >
    <v>      23.54705411      -0.00030636       0.00000000 </v>
    <v>     -11.77374195      20.39209022       0.00000000 </v>
    <v>       0.00000000       0.00000000      20.00000000 </v>
   </varray>
   <i name="volume">   9603.40089749 </i>
   <varray name="rec_basis" >
    <v>       0.04246848       0.02451994       0.00000000 </v>
    <v>       0.00000064       0.04903899       0.00000000 </v>
    <v>       0.00000000       0.00000000       0.05000000 </v>
   </varray>
  </crystal>
  <varray name="positions" >
   <v>       0.37368806       0.62005015       0.49001656 </v>
   <v>       0.55621347       0.62175038       0.49070558 </v>
   <v>       0.49948805       0.70975348       0.38277080 </v>
   <v>       0.49953705       0.81500127       0.38287982 </v>
   <v>       0.17856652       0.49374033       0.38273746 </v>
   <v>       0.28380125       0.49375195       0.38271676 </v>
   <v>       0.37192837       0.43749022       0.49044165 </v>
   <v>       0.50034543       0.71002904       0.59794623 </v>
   <v>       0.50032909       0.81525317       0.59805336 </v>
   <v>       0.17866120       0.49389731       0.59791386 </v>
   <v>       0.28389926       0.49390218       0.59789416 </v>
   <v>       0.60296556       0.05297089       0.49035948 </v>
   <v>       0.37369868       0.77872165       0.49034935 </v>
   <v>       0.21500451       0.62005015       0.49024728 </v>
   <v>       0.03422832       0.43749226       0.49033118 </v>
   <v>       0.55623455       0.95952521       0.49081792 </v>
   <v>       0.94073886       0.39075815       0.49061955 </v>
   <v>       0.37195878       0.95952014       0.49027595 </v>
   <v>       0.28379909       0.81511503       0.38275384 </v>
   <v>       0.17856340       0.70991232       0.38277748 </v>
   <v>       0.69104677       0.19765332       0.38270173 </v>
   <v>       0.79626800       0.30286981       0.38284301 </v>
   <v>       0.03417946       0.62173850       0.49050733 </v>
   <v>       0.28382861       0.81513612       0.59793267 </v>
   <v>       0.17860332       0.70990858       0.59794878 </v>
   <v>       0.69115263       0.19713996       0.59786710 </v>
   <v>       0.79636193       0.30237838       0.59800658 </v>
   <v>       0.41870921       0.39076124       0.49084665 </v>
   <v>       0.60127378       0.39253684       0.49010859 </v>
   <v>       0.60130893       0.23381346       0.49007951 </v>
   <v>       0.94069658       0.57500841       0.49020806 </v>
   <v>       0.75990023       0.39243411       0.49046078 </v>
   <v>       0.47564927       0.30296481       0.38278060 </v>
   <v>       0.47566653       0.19774567       0.38277421 </v>
   <v>       0.79639761       0.51883724       0.38274233 </v>
   <v>       0.69121139       0.51892084       0.38269516 </v>
   <v>       0.60294449       0.57504744       0.49027147 </v>
   <v>       0.41872775       0.05303461       0.49080059 </v>
   <v>       0.47436258       0.30230515       0.59794641 </v>
   <v>       0.47442000       0.19711651       0.59794699 </v>
   <v>       0.79622363       0.51862029       0.59791608 </v>
   <v>       0.69102631       0.51867099       0.59786683 </v>
   <v>       0.46915910       0.52454456       0.49052547 </v>
   <v>       0.40043391       0.59329761       0.49018698 </v>
   <v>       0.46908138       0.62850949       0.49036296 </v>
   <v>       0.50284131       0.59383926       0.49055539 </v>
   <v>       0.50193676       0.79322340       0.43022176 </v>
   <v>       0.50190927       0.73387341       0.43016166 </v>
   <v>       0.49735314       0.70121579       0.49036141 </v>
   <v>       0.25975960       0.49155008       0.43009916 </v>
   <v>       0.20041396       0.49153745       0.43010977 </v>
   <v>       0.29251739       0.49638995       0.49030195 </v>
   <v>       0.39986675       0.49086670       0.49042969 </v>
   <v>       0.36521838       0.52464873       0.49029009 </v>
   <v>       0.50239860       0.73403165       0.55058373 </v>
   <v>       0.50240271       0.79337852       0.55064610 </v>
   <v>       0.20046916       0.49162594       0.55053845 </v>
   <v>       0.25981409       0.49163542       0.55052704 </v>
   <v>       0.40044218       0.83222179       0.49041215 </v>
   <v>       0.16150551       0.59329820       0.49029414 </v>
   <v>       0.12807614       0.52464570       0.49031718 </v>
   <v>       0.05965012       0.49086460       0.49035378 </v>
   <v>       0.49737407       0.82123621       0.49048163 </v>
   <v>       0.17250615       0.49637331       0.49032137 </v>
   <v>       0.50286203       0.93408242       0.49067339 </v>
   <v>       0.46909348       0.86565750       0.49055052 </v>
   <v>       0.50576266       0.04283853       0.49054824 </v>
   <v>       0.57505429       0.07843405       0.49041010 </v>
   <v>       0.60972943       0.14686091       0.49029028 </v>
   <v>       0.46918234       0.96969251       0.49056590 </v>
   <v>       0.36522736       0.86565240       0.49037303 </v>
   <v>       0.39989020       0.93407911       0.49040118 </v>
   <v>       0.95088209       0.48796403       0.49043592 </v>
   <v>       0.02402911       0.52453294       0.49040753 </v>
   <v>       0.20040782       0.73396196       0.43015145 </v>
   <v>       0.25975935       0.79329850       0.43014130 </v>
   <v>       0.29251658       0.82122840       0.49034386 </v>
   <v>       0.17248439       0.70121385       0.49036073 </v>
   <v>       0.77446686       0.27869397       0.43017711 </v>
   <v>       0.71513356       0.21935571       0.43009874 </v>
   <v>       0.68243283       0.19127651       0.49028157 </v>
   <v>       0.80243081       0.31129567       0.49043840 </v>
   <v>       0.84684923       0.38400247       0.49051032 </v>
   <v>       0.91527714       0.41867039       0.49053688 </v>
   <v>       0.05963817       0.59382673       0.49042980 </v>
   <v>       0.12806540       0.62850315       0.49035500 </v>
   <v>       0.25977392       0.79330037       0.55055840 </v>
   <v>       0.20042911       0.73395843       0.55056828 </v>
   <v>       0.71519733       0.21907071       0.55051714 </v>
   <v>       0.77452869       0.27842209       0.55059506 </v>
   <v>       0.50574599       0.48798064       0.49053339 </v>
   <v>       0.47208019       0.41868620       0.49064263 </v>
   <v>       0.50585718       0.38403316       0.49043951 </v>
   <v>       0.57450752       0.41926814       0.49024608 </v>
   <v>       0.57453324       0.18030988       0.49022938 </v>
   <v>       0.91526425       0.52163640       0.49032988 </v>
   <v>       0.84683255       0.48785612       0.49036940 </v>
   <v>       0.81340263       0.41920379       0.49045610 </v>
   <v>       0.47316130       0.21943570       0.43013439 </v>
   <v>       0.47315044       0.27876445       0.43013699 </v>
   <v>       0.47758984       0.31132405       0.49037678 </v>
   <v>       0.47761305       0.19131958       0.49037119 </v>
   <v>       0.71521793       0.52107002       0.43008514 </v>
   <v>       0.77454213       0.52103276       0.43011362 </v>
   <v>       0.80241028       0.51614022       0.49033117 </v>
   <v>       0.68242919       0.51620626       0.49027456 </v>
   <v>       0.60971711       0.48792307       0.49027205 </v>
   <v>       0.57504007       0.52167457       0.49036034 </v>
   <v>       0.50588509       0.14689066       0.49042253 </v>
   <v>       0.47209841       0.07846106       0.49061982 </v>
   <v>       0.47242186       0.27839901       0.55055294 </v>
   <v>       0.47244030       0.21906163       0.55055381 </v>
   <v>       0.77443697       0.52090153       0.55053390 </v>
   <v>       0.71511711       0.52093796       0.55050484 </v>
  </varray>
 </structure>
 <calculation>
  <scstep>
   <time name="dav">  367.23  371.46</time>
   <time name="total">  367.41  371.65</time>
   <energy>
    <i name="alphaZ">     54.32625173 </i>
    <i name="ewald">  37845.84546553 </i>
    <i name="hartreedc"> -46987.34507226 </i>
    <i name="XCdc">   1099.28466684 </i>
    <i name="pawpsdc">  29821.59122637 </i>
    <i name="pawaedc"> -29871.86419020 </i>
    <i name="eentropy">     -0.00000000 </i>
    <i name="bandstr">  -3880.22474299 </i>
    <i name="atom">  11119.11641529 </i>
    <i name="e_fr_energy">   -799.26997969 </i>
    <i name="e_wo_entrp">   -799.26997969 </i>
    <i name="e_0_energy">   -799.26997969 </i>
   </energy>
  </scstep>
  <scstep>
   <time name="dav">  421.30  425.98</time>
   <time name="total">  421.31  425.98</time>
   <energy>
    <i name="e_fr_energy">   -799.86618651 </i>
    <i name="e_wo_entrp">   -799.86618651 </i>
    <i name="e_0_energy">   -799.86618651 </i>
   </energy>
  </scstep>
  <scstep>
   <time name="dav">  449.57  454.51</time>
   <time name="total">  449.57  454.51</time>
   <energy>
    <i name="e_fr_energy">   -799.88183720 </i>
    <i name="e_wo_entrp">   -799.88183720 </i>
    <i name="e_0_energy">   -799.88183720 </i>
   </energy>
  </scstep>
  <scstep>
   <time name="dav">  420.26  425.06</time>
   <time name="total">  420.26  425.06</time>
   <energy>
    <i name="e_fr_energy">   -799.88212450 </i>
    <i name="e_wo_entrp">   -799.88212450 </i>
    <i name="e_0_energy">   -799.88212450 </i>
   </energy>
  </scstep>
  <scstep>
   <time name="dav">  404.95  409.54</time>
   <time name="total">  404.95  409.54</time>
   <energy>
    <i name="e_fr_energy">   -799.88213789 </i>
    <i name="e_wo_entrp">   -799.88213789 </i>
    <i name="e_0_energy">   -799.88213789 </i>
   </energy>
  </scstep>
  <scstep>
   <time name="dav">  313.22  316.92</time>
   <time name="total">  313.23  316.93</time>
   <energy>
    <i name="alphaZ">     54.32625173 </i>
    <i name="ewald">  37845.84546553 </i>
    <i name="hartreedc"> -46987.34507226 </i>
    <i name="XCdc">   1099.28466684 </i>
    <i name="pawpsdc">  29821.59122637 </i>
    <i name="pawaedc"> -29871.86419020 </i>
    <i name="eentropy">     -0.00000000 </i>
    <i name="bandstr">  -3880.83690154 </i>
    <i name="atom">  11119.11641529 </i>
    <i name="e_fr_energy">   -799.88213824 </i>
    <i name="e_wo_entrp">   -799.88213824 </i>
    <i name="e_0_energy">   -799.88213824 </i>
   </energy>
  </scstep>
  <structure>
   <crystal>
    <varray name="basis" >
     <v>      23.54705411      -0.00030636       0.00000000 </v>
     <v>     -11.77374195      20.39209022       0.00000000 </v>
     <v>       0.00000000       0.00000000      20.00000000 </v>
    </varray>
    <i name="volume">   9603.40089749 </i>
    <varray name="rec_basis" >
     <v>       0.04246848       0.02451994       0.00000000 </v>
     <v>       0.00000064       0.04903899       0.00000000 </v>
     <v>       0.00000000       0.00000000       0.05000000 </v>
    </varray>
   </crystal>
   <varray name="positions" >
    <v>       0.37368806       0.62005015       0.49001656 </v>
    <v>       0.55621347       0.62175038       0.49070558 </v>
    <v>       0.49948805       0.70975348       0.38277080 </v>
    <v>       0.49953705       0.81500127       0.38287982 </v>
    <v>       0.17856652       0.49374033       0.38273746 </v>
    <v>       0.28380125       0.49375195       0.38271676 </v>
    <v>       0.37192837       0.43749022       0.49044165 </v>
    <v>       0.50034543       0.71002904       0.59794623 </v>
    <v>       0.50032909       0.81525317       0.59805336 </v>
    <v>       0.17866120       0.49389731       0.59791386 </v>
    <v>       0.28389926       0.49390218       0.59789416 </v>
    <v>       0.60296556       0.05297089       0.49035948 </v>
    <v>       0.37369868       0.77872165       0.49034935 </v>
    <v>       0.21500451       0.62005015       0.49024728 </v>
    <v>       0.03422832       0.43749226       0.49033118 </v>
    <v>       0.55623455       0.95952521       0.49081792 </v>
    <v>       0.94073886       0.39075815       0.49061955 </v>
    <v>       0.37195878       0.95952014       0.49027595 </v>
    <v>       0.28379909       0.81511503       0.38275384 </v>
    <v>       0.17856340       0.70991232       0.38277748 </v>
    <v>       0.69104677       0.19765332       0.38270173 </v>
    <v>       0.79626800       0.30286981       0.38284301 </v>
    <v>       0.03417946       0.62173850       0.49050733 </v>
    <v>       0.28382861       0.81513612       0.59793267 </v>
    <v>       0.17860332       0.70990858       0.59794878 </v>
    <v>       0.69115263       0.19713996       0.59786710 </v>
    <v>       0.79636193       0.30237838       0.59800658 </v>
    <v>       0.41870921       0.39076124       0.49084665 </v>
    <v>       0.60127378       0.39253684       0.49010859 </v>
    <v>       0.60130893       0.23381346       0.49007951 </v>
    <v>       0.94069658       0.57500841       0.49020806 </v>
    <v>       0.75990023       0.39243411       0.49046078 </v>
    <v>       0.47564927       0.30296481       0.38278060 </v>
    <v>       0.47566653       0.19774567       0.38277421 </v>
    <v>       0.79639761       0.51883724       0.38274233 </v>
    <v>       0.69121139       0.51892084       0.38269516 </v>
    <v>       0.60294449       0.57504744       0.49027147 </v>
    <v>       0.41872775       0.05303461       0.49080059 </v>
    <v>       0.47436258       0.30230515       0.59794641 </v>
    <v>       0.47442000       0.19711651       0.59794699 </v>
    <v>       0.79622363       0.51862029       0.59791608 </v>
    <v>       0.69102631       0.51867099       0.59786683 </v>
    <v>       0.46915910       0.52454456       0.49052547 </v>
    <v>       0.40043391       0.59329761       0.49018698 </v>
    <v>       0.46908138       0.62850949       0.49036296 </v>
    <v>       0.50284131       0.59383926       0.49055539 </v>
    <v>       0.50193676       0.79322340       0.43022176 </v>
    <v>       0.50190927       0.73387341       0.43016166 </v>
    <v>       0.49735314       0.70121579       0.49036141 </v>
    <v>       0.25975960       0.49155008       0.43009916 </v>
    <v>       0.20041396       0.49153745       0.43010977 </v>
    <v>       0.29251739       0.49638995       0.49030195 </v>
    <v>       0.39986675       0.49086670       0.49042969 </v>
    <v>       0.36521838       0.52464873       0.49029009 </v>
    <v>       0.50239860       0.73403165       0.55058373 </v>
    <v>       0.50240271       0.79337852       0.55064610 </v>
    <v>       0.20046916       0.49162594       0.55053845 </v>
    <v>       0.25981409       0.49163542       0.55052704 </v>
    <v>       0.40044218       0.83222179       0.49041215 </v>
    <v>       0.16150551       0.59329820       0.49029414 </v>
    <v>       0.12807614       0.52464570       0.49031718 </v>
    <v>       0.05965012       0.49086460       0.49035378 </v>
    <v>       0.49737407       0.82123621       0.49048163 </v>
    <v>       0.17250615       0.49637331       0.49032137 </v>
    <v>       0.50286203       0.93408242       0.49067339 </v>
    <v>       0.46909348       0.86565750       0.49055052 </v>
    <v>       0.50576266       0.04283853       0.49054824 </v>
    <v>       0.57505429       0.07843405       0.49041010 </v>
    <v>       0.60972943       0.14686091       0.49029028 </v>
    <v>       0.46918234       0.96969251       0.49056590 </v>
    <v>       0.36522736       0.86565240       0.49037303 </v>
    <v>       0.39989020       0.93407911       0.49040118 </v>
    <v>       0.95088209       0.48796403       0.49043592 </v>
    <v>       0.02402911       0.52453294       0.49040753 </v>
    <v>       0.20040782       0.73396196       0.43015145 </v>
    <v>       0.25975935       0.79329850       0.43014130 </v>
    <v>       0.29251658       0.82122840       0.49034386 </v>
    <v>       0.17248439       0.70121385       0.49036073 </v>
    <v>       0.77446686       0.27869397       0.43017711 </v>
    <v>       0.71513356       0.21935571       0.43009874 </v>
    <v>       0.68243283       0.19127651       0.49028157 </v>
    <v>       0.80243081       0.31129567       0.49043840 </v>
    <v>       0.84684923       0.38400247       0.49051032 </v>
    <v>       0.91527714       0.41867039       0.49053688 </v>
    <v>       0.05963817       0.59382673       0.49042980 </v>
    <v>       0.12806540       0.62850315       0.49035500 </v>
    <v>       0.25977392       0.79330037       0.55055840 </v>
    <v>       0.20042911       0.73395843       0.55056828 </v>
    <v>       0.71519733       0.21907071       0.55051714 </v>
    <v>       0.77452869       0.27842209       0.55059506 </v>
    <v>       0.50574599       0.48798064       0.49053339 </v>
    <v>       0.47208019       0.41868620       0.49064263 </v>
    <v>       0.50585718       0.38403316       0.49043951 </v>
    <v>       0.57450752       0.41926814       0.49024608 </v>
    <v>       0.57453324       0.18030988       0.49022938 </v>
    <v>       0.91526425       0.52163640       0.49032988 </v>
    <v>       0.84683255       0.48785612       0.49036940 </v>
    <v>       0.81340263       0.41920379       0.49045610 </v>
    <v>       0.47316130       0.21943570       0.43013439 </v>
    <v>       0.47315044       0.27876445       0.43013699 </v>
    <v>       0.47758984       0.31132405       0.49037678 </v>
    <v>       0.47761305       0.19131958       0.49037119 </v>
    <v>       0.71521793       0.52107002       0.43008514 </v>
    <v>       0.77454213       0.52103276       0.43011362 </v>
    <v>       0.80241028       0.51614022       0.49033117 </v>
    <v>       0.68242919       0.51620626       0.49027456 </v>
    <v>       0.60971711       0.48792307       0.49027205 </v>
    <v>       0.57504007       0.52167457       0.49036034 </v>
    <v>       0.50588509       0.14689066       0.49042253 </v>
    <v>       0.47209841       0.07846106       0.49061982 </v>
    <v>       0.47242186       0.27839901       0.55055294 </v>
    <v>       0.47244030       0.21906163       0.55055381 </v>
    <v>       0.77443697       0.52090153       0.55053390 </v>
    <v>       0.71511711       0.52093796       0.55050484 </v>
   </varray>
  </structure>
  <varray name="forces" >
   <v>      -0.00173846       0.00115599       0.00151884 </v>
   <v>      -0.00021598       0.00182654       0.00042355 </v>
   <v>      -0.00504352       0.00029173      -0.00048696 </v>
   <v>      -0.00222795      -0.00496490      -0.00161317 </v>
   <v>       0.00387436       0.00277142      -0.00054564 </v>
   <v>      -0.00355114       0.00277438       0.00042795 </v>
   <v>      -0.00113947      -0.00015221       0.00056785 </v>
   <v>      -0.00469146       0.00117124       0.00051999 </v>
   <v>      -0.00093568      -0.00458842       0.00034768 </v>
   <v>       0.00333119       0.00353406       0.00095383 </v>
   <v>      -0.00265709       0.00268845       0.00088966 </v>
   <v>       0.00162270       0.00180314       0.00077452 </v>
   <v>      -0.00031881      -0.00312037       0.00029863 </v>
   <v>       0.00220156       0.00118923       0.00014355 </v>
   <v>       0.00097450      -0.00023849       0.00007916 </v>
   <v>       0.00184141      -0.00080728      -0.00069249 </v>
   <v>      -0.00134579      -0.00144167      -0.00005772 </v>
   <v>      -0.00032017      -0.00076426       0.00065124 </v>
   <v>       0.00116275      -0.00391401       0.00023123 </v>
   <v>       0.00540703       0.00147515      -0.00079463 </v>
   <v>      -0.00052251       0.00364560      -0.00050714 </v>
   <v>      -0.00480242      -0.00167043      -0.00104158 </v>
   <v>       0.00069677       0.00176273       0.00049058 </v>
   <v>       0.00136601      -0.00405326       0.00048566 </v>
   <v>       0.00411694       0.00101439       0.00002873 </v>
   <v>      -0.00037537       0.00416679       0.00020670 </v>
   <v>      -0.00405898      -0.00160274      -0.00009835 </v>
   <v>       0.00055219      -0.00114124      -0.00082563 </v>
   <v>       0.00262923      -0.00121459       0.00064903 </v>
   <v>      -0.00006011       0.00278764       0.00099048 </v>
   <v>      -0.00208688       0.00041791       0.00039763 </v>
   <v>      -0.00278409      -0.00135296      -0.00036480 </v>
   <v>       0.00353040      -0.00142829      -0.00103237 </v>
   <v>       0.00129380       0.00455565      -0.00125598 </v>
   <v>      -0.00285738      -0.00268100      -0.00059113 </v>
   <v>       0.00376816      -0.00361420      -0.00064522 </v>
   <v>       0.00184875       0.00043038       0.00096969 </v>
   <v>      -0.00087577       0.00117068      -0.00040850 </v>
   <v>       0.00446880      -0.00143098      -0.00067378 </v>
   <v>       0.00014820       0.00394586      -0.00033829 </v>
   <v>      -0.00334687      -0.00380656       0.00086306 </v>
   <v>       0.00266842      -0.00248525       0.00022887 </v>
   <v>       0.00035002       0.00098759       0.00061573 </v>
   <v>      -0.00513092       0.00318853       0.00048879 </v>
   <v>       0.00079595       0.00107484       0.00108307 </v>
   <v>      -0.00244277      -0.00056995       0.00006454 </v>
   <v>       0.00258334      -0.00482350       0.00109762 </v>
   <v>      -0.00241434       0.00343652      -0.00055652 </v>
   <v>      -0.00143288      -0.00215895      -0.00013967 </v>
   <v>      -0.00328322      -0.00057225      -0.00086867 </v>
   <v>       0.00387384      -0.00098875       0.00028581 </v>
   <v>       0.00105309       0.00109220       0.00024859 </v>
   <v>      -0.00061884       0.00080321       0.00002521 </v>
   <v>      -0.00111134      -0.00023777       0.00051090 </v>
   <v>      -0.00167448       0.00328188       0.00034960 </v>
   <v>       0.00198289      -0.00296376       0.00010215 </v>
   <v>       0.00438824      -0.00100428      -0.00098601 </v>
   <v>      -0.00435455      -0.00064629      -0.00127670 </v>
   <v>       0.00041244      -0.00537012       0.00027846 </v>
   <v>       0.00597599       0.00084792       0.00001111 </v>
   <v>       0.00112914       0.00082210       0.00003264 </v>
   <v>       0.00100768       0.00006966       0.00027828 </v>
   <v>      -0.00131021      -0.00096386       0.00018627 </v>
   <v>      -0.00031488       0.00188390       0.00038550 </v>
   <v>      -0.00050631      -0.00277188       0.00012259 </v>
   <v>      -0.00042170       0.00070105      -0.00005067 </v>
   <v>       0.00057456       0.00032613       0.00029395 </v>
   <v>      -0.00083827       0.00117094       0.00025448 </v>
   <v>       0.00193376       0.00033691       0.00039610 </v>
   <v>      -0.00014079       0.00044761      -0.00001968 </v>
   <v>      -0.00120730      -0.00112282       0.00003382 </v>
   <v>       0.00040329      -0.00073352       0.00038672 </v>
   <v>      -0.00033123       0.00021745       0.00036540 </v>
   <v>      -0.00092771       0.00170673       0.00068023 </v>
   <v>       0.00207973       0.00289907      -0.00012873 </v>
   <v>      -0.00135985      -0.00250133      -0.00076079 </v>
   <v>       0.00278491       0.00044636       0.00021419 </v>
   <v>       0.00155546      -0.00204043      -0.00020771 </v>
   <v>      -0.00159064      -0.00320017       0.00113190 </v>
   <v>       0.00236888       0.00361472      -0.00015459 </v>
   <v>      -0.00191879       0.00087894       0.00075314 </v>
   <v>      -0.00168673       0.00185179      -0.00131217 </v>
   <v>      -0.00084153      -0.00191034      -0.00044002 </v>
   <v>      -0.00190094       0.00005370      -0.00009551 </v>
   <v>       0.00102082      -0.00029823      -0.00005083 </v>
   <v>      -0.00117657       0.00214444       0.00009358 </v>
   <v>      -0.00148865      -0.00314098      -0.00063733 </v>
   <v>       0.00135659       0.00294778      -0.00120932 </v>
   <v>       0.00188473       0.00198640       0.00020606 </v>
   <v>      -0.00099079      -0.00260142       0.00082543 </v>
   <v>       0.00000169       0.00060359      -0.00002573 </v>
   <v>       0.00144636      -0.00050149      -0.00037332 </v>
   <v>      -0.00019572      -0.00121433       0.00031846 </v>
   <v>       0.00572488      -0.00266593       0.00044644 </v>
   <v>      -0.00174614       0.00763019       0.00028445 </v>
   <v>      -0.00161779      -0.00213352      -0.00008108 </v>
   <v>      -0.00002842       0.00063400      -0.00040125 </v>
   <v>      -0.00466988      -0.00244742      -0.00031553 </v>
   <v>      -0.00237883       0.00335060       0.00079434 </v>
   <v>       0.00161308      -0.00384628       0.00042087 </v>
   <v>       0.00135823       0.00109677      -0.00003477 </v>
   <v>       0.00069772       0.00148770      -0.00140602 </v>
   <v>       0.00376625       0.00052242      -0.00069512 </v>
   <v>      -0.00342873      -0.00000819      -0.00033959 </v>
   <v>      -0.00008764      -0.00128895      -0.00022036 </v>
   <v>      -0.00054462      -0.00199536       0.00023857 </v>
   <v>       0.00201108       0.00077313      -0.00014364 </v>
   <v>       0.00096209      -0.00047703       0.00014859 </v>
   <v>      -0.00045175      -0.00041012       0.00005117 </v>
   <v>       0.00048543       0.00300144      -0.00019353 </v>
   <v>       0.00104430      -0.00277858      -0.00054413 </v>
   <v>      -0.00266075       0.00269793      -0.00007630 </v>
   <v>      -0.00454860       0.00088881      -0.00074879 </v>
   <v>       0.00360137       0.00037696      -0.00117537 </v>
  </varray>
  <varray name="stress" >
   <v>      -0.02731394      -0.00054076      -0.00098859 </v>
   <v>      -0.00054076      -0.02760940       0.00035006 </v>
   <v>      -0.00098859       0.00035006      -0.17566337 </v>
  </varray>
  <energy>
   <i name="e_fr_energy">   -802.38534369 </i>
   <i name="e_wo_entrp">   -802.38534369 </i>
   <i name="e_0_energy">     -0.00000000 </i>
  </energy>
  <time name="totalsc"> 2807.44 2840.42</time>
  <eigenvalues>
   <array>
    <dimension dim="1">band</dimension>
    <dimension dim="2">kpoint</dimension>
    <dimension dim="3">spin</dimension>
    <field>eigene</field>
    <field>occ</field>
    <set>
     <set comment="spin 1">
      <set comment="kpoint 1">
       <r>  -21.5008    1.0000 </r>
       <r>  -21.3740    1.0000 </r>
       <r>  -21.3737    1.0000 </r>
       <r>  -21.3464    1.0000 </r>
       <r>  -21.1724    1.0000 </r>
       <r>  -21.1723    1.0000 </r>
       <r>  -20.8741    1.0000 </r>
       <r>  -20.8740    1.0000 </r>
       <r>  -20.6788    1.0000 </r>
       <r>  -20.6786    1.0000 </r>
       <r>  -20.6229    1.0000 </r>
       <r>  -20.1817    1.0000 </r>
       <r>  -19.4184    1.0000 </r>
       <r>  -19.4183    1.0000 </r>
       <r>  -19.4009    1.0000 </r>
       <r>  -19.3614    1.0000 </r>
       <r>  -18.7934    1.0000 </r>
       <r>  -18.7534    1.0000 </r>
       <r>  -18.7533    1.0000 </r>
       <r>  -18.3097    1.0000 </r>
       <r>  -18.3093    1.0000 </r>
       <r>  -17.9249    1.0000 </r>
       <r>  -17.9247    1.0000 </r>
       <r>  -17.9233    1.0000 </r>
       <r>  -17.9230    1.0000 </r>
       <r>  -17.9227    1.0000 </r>
       <r>  -17.9223    1.0000 </r>
       <r>  -17.9180    1.0000 </r>
       <r>  -17.9177    1.0000 </r>
       <r>  -17.4111    1.0000 </r>
       <r>  -17.2204    1.0000 </r>
       <r>  -17.1874    1.0000 </r>
       <r>  -17.1871    1.0000 </r>
       <r>  -16.9062    1.0000 </r>
       <r>  -16.9060    1.0000 </r>
       <r>  -16.8365    1.0000 </r>
       <r>  -15.5064    1.0000 </r>
       <r>  -15.5062    1.0000 </r>
       <r>  -15.0702    1.0000 </r>
       <r>  -15.0474    1.0000 </r>
       <r>  -15.0470    1.0000 </r>
       <r>  -14.8980    1.0000 </r>
       <r>  -14.8978    1.0000 </r>
       <r>  -14.7593    1.0000 </r>
       <r>  -14.5070    1.0000 </r>
       <r>  -14.4420    1.0000 </r>
       <r>  -14.4419    1.0000 </r>
       <r>  -14.4417    1.0000 </r>
       <r>  -14.4414    1.0000 </r>
       <r>  -14.4275    1.0000 </r>
       <r>  -14.4256    1.0000 </r>
       <r>  -14.4245    1.0000 </r>
       <r>  -13.7123    1.0000 </r>
       <r>  -13.7119    1.0000 </r>
       <r>  -13.7082    1.0000 </r>
       <r>  -13.3264    1.0000 </r>
       <r>  -13.3263    1.0000 </r>
       <r>  -13.2899    1.0000 </r>
       <r>  -13.2404    1.0000 </r>
       <r>  -13.2403    1.0000 </r>
       <r>  -12.7433    1.0000 </r>
       <r>  -12.5744    1.0000 </r>
       <r>  -12.5742    1.0000 </r>
       <r>  -12.1255    1.0000 </r>
       <r>  -11.8474    1.0000 </r>
       <r>  -11.8471    1.0000 </r>
       <r>  -11.8315    1.0000 </r>
       <r>  -11.6141    1.0000 </r>
       <r>  -11.6138    1.0000 </r>
       <r>  -11.4008    1.0000 </r>
       <r>  -11.4005    1.0000 </r>
       <r>  -11.3065    1.0000 </r>
       <r>  -11.2061    1.0000 </r>
       <r>  -11.2054    1.0000 </r>
       <r>  -11.1724    1.0000 </r>
       <r>  -10.8450    1.0000 </r>
       <r>  -10.8286    1.0000 </r>
       <r>  -10.7596    1.0000 </r>
       <r>  -10.7593    1.0000 </r>
       <r>  -10.7388    1.0000 </r>
       <r>  -10.7388    1.0000 </r>
       <r>  -10.7343    1.0000 </r>
       <r>  -10.7343    1.0000 </r>
       <r>  -10.5603    1.0000 </r>
       <r>  -10.5603    1.0000 </r>
       <r>  -10.4415    1.0000 </r>
       <r>  -10.3781    1.0000 </r>
       <r>  -10.2633    1.0000 </r>
       <r>  -10.2631    1.0000 </r>
       <r>  -10.2196    1.0000 </r>
       <r>  -10.1104    1.0000 </r>
       <r>  -10.1103    1.0000 </r>
       <r>   -9.9317    1.0000 </r>
       <r>   -9.8000    1.0000 </r>
       <r>   -9.7985    1.0000 </r>
       <r>   -9.7982    1.0000 </r>
       <r>   -9.6298    1.0000 </r>
       <r>   -9.6272    1.0000 </r>
       <r>   -9.6230    1.0000 </r>
       <r>   -9.6228    1.0000 </r>
       <r>   -9.6219    1.0000 </r>
       <r>   -9.6216    1.0000 </r>
       <r>   -9.5483    1.0000 </r>
       <r>   -9.5482    1.0000 </r>
       <r>   -9.4004    1.0000 </r>
       <r>   -9.2507    1.0000 </r>
       <r>   -9.2503    1.0000 </r>
       <r>   -9.0663    1.0000 </r>
       <r>   -9.0661    1.0000 </r>
       <r>   -8.9099    1.0000 </r>
       <r>   -8.8892    1.0000 </r>
       <r>   -8.8122    1.0000 </r>
       <r>   -8.7279    1.0000 </r>
       <r>   -8.7276    1.0000 </r>
       <r>   -8.4700    1.0000 </r>
       <r>   -8.4385    1.0000 </r>
       <r>   -8.4384    1.0000 </r>
       <r>   -8.2681    1.0000 </r>
       <r>   -8.2407    1.0000 </r>
       <r>   -8.2080    1.0000 </r>
       <r>   -8.2077    1.0000 </r>
       <r>   -8.2003    1.0000 </r>
       <r>   -8.2001    1.0000 </r>
       <r>   -8.0765    1.0000 </r>
       <r>   -8.0761    1.0000 </r>
       <r>   -8.0586    1.0000 </r>
       <r>   -7.8284    1.0000 </r>
       <r>   -7.8256    1.0000 </r>
       <r>   -7.7857    1.0000 </r>
       <r>   -7.7855    1.0000 </r>
       <r>   -7.7247    1.0000 </r>
       <r>   -7.7087    1.0000 </r>
       <r>   -7.7081    1.0000 </r>
       <r>   -7.5631    1.0000 </r>
       <r>   -7.5629    1.0000 </r>
       <r>   -7.4620    1.0000 </r>
       <r>   -7.4406    1.0000 </r>
       <r>   -7.4404    1.0000 </r>
       <r>   -7.2957    1.0000 </r>
       <r>   -7.0465    1.0000 </r>
       <r>   -7.0464    1.0000 </r>
       <r>   -6.5741    1.0000 </r>
       <r>   -6.5237    1.0000 </r>
       <r>   -6.5237    1.0000 </r>
       <r>   -5.9275    1.0000 </r>
       <r>   -5.9274    1.0000 </r>
       <r>   -5.9263    1.0000 </r>
       <r>   -5.8804    1.0000 </r>
       <r>   -5.8635    1.0000 </r>
       <r>   -5.8634    1.0000 </r>
       <r>   -5.7759    1.0000 </r>
       <r>   -5.7757    1.0000 </r>
       <r>   -5.7497    1.0000 </r>
       <r>   -5.7135    1.0000 </r>
       <r>   -5.6156    1.0000 </r>
       <r>   -5.6155    1.0000 </r>
       <r>   -5.5984    1.0000 </r>
       <r>   -5.5983    1.0000 </r>
       <r>   -5.5374    1.0000 </r>
       <r>   -5.5372    1.0000 </r>
       <r>   -5.3910    1.0000 </r>
       <r>   -5.3549    1.0000 </r>
       <r>   -5.0407    1.0000 </r>
       <r>   -5.0404    1.0000 </r>
       <r>   -4.9382    1.0000 </r>
       <r>   -1.7088    0.0000 </r>
       <r>   -1.7085    0.0000 </r>
       <r>   -1.5938    0.0000 </r>
       <r>   -1.4276    0.0000 </r>
       <r>   -1.1378    0.0000 </r>
       <r>   -1.1373    0.0000 </r>
       <r>   -1.1338    0.0000 </r>
       <r>   -1.1067    0.0000 </r>
       <r>   -1.1058    0.0000 </r>
       <r>   -0.7919    0.0000 </r>
       <r>   -0.7919    0.0000 </r>
       <r>   -0.7788    0.0000 </r>
       <r>   -0.7775    0.0000 </r>
       <r>   -0.7719    0.0000 </r>
       <r>   -0.7706    0.0000 </r>
       <r>   -0.5846    0.0000 </r>
       <r>   -0.5844    0.0000 </r>
       <r>   -0.3047    0.0000 </r>
       <r>   -0.1725    0.0000 </r>
       <r>   -0.1720    0.0000 </r>
       <r>   -0.1330    0.0000 </r>
       <r>    0.0116    0.0000 </r>
       <r>    0.0700    0.0000 </r>
       <r>    0.1031    0.0000 </r>
       <r>    0.1770    0.0000 </r>
       <r>    0.1772    0.0000 </r>
       <r>    0.1791    0.0000 </r>
       <r>    0.1794    0.0000 </r>
       <r>    0.2138    0.0000 </r>
       <r>    0.3290    0.0000 </r>
       <r>    0.3294    0.0000 </r>
       <r>    0.4866    0.0000 </r>
       <r>    0.4943    0.0000 </r>
       <r>    0.6154    0.0000 </r>
       <r>    0.6157    0.0000 </r>
       <r>    0.6531    0.0000 </r>
       <r>    0.7625    0.0000 </r>
       <r>    0.7627    0.0000 </r>
       <r>    0.7821    0.0000 </r>
       <r>    0.8032    0.0000 </r>
       <r>    0.8034    0.0000 </r>
       <r>    0.8037    0.0000 </r>
       <r>    0.8147    0.0000 </r>
       <r>    0.8503    0.0000 </r>
       <r>    0.8505    0.0000 </r>
       <r>    0.9677    0.0000 </r>
       <r>    0.9679    0.0000 </r>
       <r>    1.1081    0.0000 </r>
       <r>    1.1091    0.0000 </r>
       <r>    1.1346    0.0000 </r>
       <r>    1.1356    0.0000 </r>
       <r>    1.2093    0.0000 </r>
       <r>    1.2103    0.0000 </r>
       <r>    1.2214    0.0000 </r>
       <r>    1.2555    0.0000 </r>
       <r>    1.3336    0.0000 </r>
       <r>    1.3419    0.0000 </r>
       <r>    1.3421    0.0000 </r>
       <r>    1.3729    0.0000 </r>
      </set>
      <set comment="kpoint 2">
       <r>  -21.5007    1.0000 </r>
       <r>  -21.3753    1.0000 </r>
       <r>  -21.3738    1.0000 </r>
       <r>  -21.3449    1.0000 </r>
       <r>  -21.1725    1.0000 </r>
       <r>  -21.1723    1.0000 </r>
       <r>  -20.8741    1.0000 </r>
       <r>  -20.8740    1.0000 </r>
       <r>  -20.6811    1.0000 </r>
       <r>  -20.6786    1.0000 </r>
       <r>  -20.6202    1.0000 </r>
       <r>  -20.1823    1.0000 </r>
       <r>  -19.4183    1.0000 </r>
       <r>  -19.4176    1.0000 </r>
       <r>  -19.4009    1.0000 </r>
       <r>  -19.3614    1.0000 </r>
       <r>  -18.8012    1.0000 </r>
       <r>  -18.7531    1.0000 </r>
       <r>  -18.7456    1.0000 </r>
       <r>  -18.3103    1.0000 </r>
       <r>  -18.3099    1.0000 </r>
       <r>  -17.9249    1.0000 </r>
       <r>  -17.9247    1.0000 </r>
       <r>  -17.9232    1.0000 </r>
       <r>  -17.9230    1.0000 </r>
       <r>  -17.9227    1.0000 </r>
       <r>  -17.9223    1.0000 </r>
       <r>  -17.9174    1.0000 </r>
       <r>  -17.9169    1.0000 </r>
       <r>  -17.4127    1.0000 </r>
       <r>  -17.2221    1.0000 </r>
       <r>  -17.1863    1.0000 </r>
       <r>  -17.1857    1.0000 </r>
       <r>  -16.9063    1.0000 </r>
       <r>  -16.9061    1.0000 </r>
       <r>  -16.8364    1.0000 </r>
       <r>  -15.5064    1.0000 </r>
       <r>  -15.5056    1.0000 </r>
       <r>  -15.0701    1.0000 </r>
       <r>  -15.0474    1.0000 </r>
       <r>  -15.0472    1.0000 </r>
       <r>  -14.8992    1.0000 </r>
       <r>  -14.8983    1.0000 </r>
       <r>  -14.7588    1.0000 </r>
       <r>  -14.5074    1.0000 </r>
       <r>  -14.4420    1.0000 </r>
       <r>  -14.4419    1.0000 </r>
       <r>  -14.4416    1.0000 </r>
       <r>  -14.4414    1.0000 </r>
       <r>  -14.4267    1.0000 </r>
       <r>  -14.4256    1.0000 </r>
       <r>  -14.4237    1.0000 </r>
       <r>  -13.7228    1.0000 </r>
       <r>  -13.7115    1.0000 </r>
       <r>  -13.6980    1.0000 </r>
       <r>  -13.3269    1.0000 </r>
       <r>  -13.3265    1.0000 </r>
       <r>  -13.2906    1.0000 </r>
       <r>  -13.2401    1.0000 </r>
       <r>  -13.2397    1.0000 </r>
       <r>  -12.7431    1.0000 </r>
       <r>  -12.5749    1.0000 </r>
       <r>  -12.5743    1.0000 </r>
       <r>  -12.1249    1.0000 </r>
       <r>  -11.8492    1.0000 </r>
       <r>  -11.8469    1.0000 </r>
       <r>  -11.8296    1.0000 </r>
       <r>  -11.6145    1.0000 </r>
       <r>  -11.6142    1.0000 </r>
       <r>  -11.4005    1.0000 </r>
       <r>  -11.4001    1.0000 </r>
       <r>  -11.3066    1.0000 </r>
       <r>  -11.2061    1.0000 </r>
       <r>  -11.2054    1.0000 </r>
       <r>  -11.1725    1.0000 </r>
       <r>  -10.8450    1.0000 </r>
       <r>  -10.8287    1.0000 </r>
       <r>  -10.7598    1.0000 </r>
       <r>  -10.7592    1.0000 </r>
       <r>  -10.7388    1.0000 </r>
       <r>  -10.7387    1.0000 </r>
       <r>  -10.7343    1.0000 </r>
       <r>  -10.7343    1.0000 </r>
       <r>  -10.5605    1.0000 </r>
       <r>  -10.5602    1.0000 </r>
       <r>  -10.4414    1.0000 </r>
       <r>  -10.3782    1.0000 </r>
       <r>  -10.2633    1.0000 </r>
       <r>  -10.2631    1.0000 </r>
       <r>  -10.2197    1.0000 </r>
       <r>  -10.1105    1.0000 </r>
       <r>  -10.1103    1.0000 </r>
       <r>   -9.9327    1.0000 </r>
       <r>   -9.7997    1.0000 </r>
       <r>   -9.7981    1.0000 </r>
       <r>   -9.7971    1.0000 </r>
       <r>   -9.6298    1.0000 </r>
       <r>   -9.6273    1.0000 </r>
       <r>   -9.6230    1.0000 </r>
       <r>   -9.6228    1.0000 </r>
       <r>   -9.6219    1.0000 </r>
       <r>   -9.6216    1.0000 </r>
       <r>   -9.5485    1.0000 </r>
       <r>   -9.5483    1.0000 </r>
       <r>   -9.4017    1.0000 </r>
       <r>   -9.2507    1.0000 </r>
       <r>   -9.2491    1.0000 </r>
       <r>   -9.0662    1.0000 </r>
       <r>   -9.0660    1.0000 </r>
       <r>   -8.9097    1.0000 </r>
       <r>   -8.8896    1.0000 </r>
       <r>   -8.8123    1.0000 </r>
       <r>   -8.7289    1.0000 </r>
       <r>   -8.7276    1.0000 </r>
       <r>   -8.4698    1.0000 </r>
       <r>   -8.4384    1.0000 </r>
       <r>   -8.4379    1.0000 </r>
       <r>   -8.2684    1.0000 </r>
       <r>   -8.2400    1.0000 </r>
       <r>   -8.2088    1.0000 </r>
       <r>   -8.2084    1.0000 </r>
       <r>   -8.1997    1.0000 </r>
       <r>   -8.1992    1.0000 </r>
       <r>   -8.0761    1.0000 </r>
       <r>   -8.0758    1.0000 </r>
       <r>   -8.0594    1.0000 </r>
       <r>   -7.8284    1.0000 </r>
       <r>   -7.8256    1.0000 </r>
       <r>   -7.7856    1.0000 </r>
       <r>   -7.7849    1.0000 </r>
       <r>   -7.7326    1.0000 </r>
       <r>   -7.7087    1.0000 </r>
       <r>   -7.7005    1.0000 </r>
       <r>   -7.5632    1.0000 </r>
       <r>   -7.5630    1.0000 </r>
       <r>   -7.4721    1.0000 </r>
       <r>   -7.4405    1.0000 </r>
       <r>   -7.4305    1.0000 </r>
       <r>   -7.2960    1.0000 </r>
       <r>   -7.0467    1.0000 </r>
       <r>   -7.0465    1.0000 </r>
       <r>   -6.5740    1.0000 </r>
       <r>   -6.5238    1.0000 </r>
       <r>   -6.5237    1.0000 </r>
       <r>   -5.9274    1.0000 </r>
       <r>   -5.9274    1.0000 </r>
       <r>   -5.9262    1.0000 </r>
       <r>   -5.8806    1.0000 </r>
       <r>   -5.8635    1.0000 </r>
       <r>   -5.8632    1.0000 </r>
       <r>   -5.7761    1.0000 </r>
       <r>   -5.7759    1.0000 </r>
       <r>   -5.7496    1.0000 </r>
       <r>   -5.7132    1.0000 </r>
       <r>   -5.6157    1.0000 </r>
       <r>   -5.6155    1.0000 </r>
       <r>   -5.5983    1.0000 </r>
       <r>   -5.5982    1.0000 </r>
       <r>   -5.5375    1.0000 </r>
       <r>   -5.5373    1.0000 </r>
       <r>   -5.3909    1.0000 </r>
       <r>   -5.3550    1.0000 </r>
       <r>   -5.0406    1.0000 </r>
       <r>   -5.0403    1.0000 </r>
       <r>   -4.9383    1.0000 </r>
       <r>   -1.7087    0.0000 </r>
       <r>   -1.7085    0.0000 </r>
       <r>   -1.5940    0.0000 </r>
       <r>   -1.4274    0.0000 </r>
       <r>   -1.1472    0.0000 </r>
       <r>   -1.1375    0.0000 </r>
       <r>   -1.1239    0.0000 </r>
       <r>   -1.1067    0.0000 </r>
       <r>   -1.1058    0.0000 </r>
       <r>   -0.7919    0.0000 </r>
       <r>   -0.7919    0.0000 </r>
       <r>   -0.7792    0.0000 </r>
       <r>   -0.7781    0.0000 </r>
       <r>   -0.7719    0.0000 </r>
       <r>   -0.7707    0.0000 </r>
       <r>   -0.5840    0.0000 </r>
       <r>   -0.5838    0.0000 </r>
       <r>   -0.3054    0.0000 </r>
       <r>   -0.1726    0.0000 </r>
       <r>   -0.1718    0.0000 </r>
       <r>   -0.1328    0.0000 </r>
       <r>    0.0114    0.0000 </r>
       <r>    0.0701    0.0000 </r>
       <r>    0.1013    0.0000 </r>
       <r>    0.1768    0.0000 </r>
       <r>    0.1786    0.0000 </r>
       <r>    0.1788    0.0000 </r>
       <r>    0.1794    0.0000 </r>
       <r>    0.2146    0.0000 </r>
       <r>    0.3293    0.0000 </r>
       <r>    0.3299    0.0000 </r>
       <r>    0.4871    0.0000 </r>
       <r>    0.4932    0.0000 </r>
       <r>    0.6152    0.0000 </r>
       <r>    0.6165    0.0000 </r>
       <r>    0.6531    0.0000 </r>
       <r>    0.7627    0.0000 </r>
       <r>    0.7632    0.0000 </r>
       <r>    0.7812    0.0000 </r>
       <r>    0.8003    0.0000 </r>
       <r>    0.8007    0.0000 </r>
       <r>    0.8035    0.0000 </r>
       <r>    0.8167    0.0000 </r>
       <r>    0.8504    0.0000 </r>
       <r>    0.8505    0.0000 </r>
       <r>    0.9688    0.0000 </r>
       <r>    0.9706    0.0000 </r>
       <r>    1.1049    0.0000 </r>
       <r>    1.1098    0.0000 </r>
[...]
       <r>   -18.1002     0.0000    42.0000 </r>
       <r>   -18.0160     0.0000    42.0000 </r>
       <r>   -17.9317    17.5822    43.4813 </r>
       <r>   -17.8475   143.7711    55.5937 </r>
       <r>   -17.7632    16.1953    57.0296 </r>
       <r>   -17.6790    18.3438    58.6133 </r>
       <r>   -17.5947     3.4877    59.1016 </r>
       <r>   -17.5105     3.0819    59.3934 </r>
       <r>   -17.4263     4.0645    59.7759 </r>
       <r>   -17.3420     2.2462    60.0012 </r>
       <r>   -17.2578    18.3175    61.5444 </r>
       <r>   -17.1735    11.0542    62.5125 </r>
       <r>   -17.0893    35.9037    65.6497 </r>
       <r>   -17.0050     0.0000    66.0000 </r>
       <r>   -16.9208    18.1755    67.5313 </r>
       <r>   -16.8365    30.9207    70.5698 </r>
       <r>   -16.7523    11.5740    72.0000 </r>
       <r>   -16.6680     0.0000    72.0000 </r>
       <r>   -16.5838     0.0000    72.0000 </r>
       <r>   -16.4995     0.0000    72.0000 </r>
       <r>   -16.4153     0.0000    72.0000 </r>
       <r>   -16.3310     0.0000    72.0000 </r>
       <r>   -16.2468     0.0000    72.0000 </r>
       <r>   -16.1625     0.0000    72.0000 </r>
       <r>   -16.0783     0.0000    72.0000 </r>
       <r>   -15.9940     0.0000    72.0000 </r>
       <r>   -15.9098     0.0000    72.0000 </r>
       <r>   -15.8255     0.0000    72.0000 </r>
       <r>   -15.7413     0.0000    72.0000 </r>
       <r>   -15.6570     0.0000    72.0000 </r>
       <r>   -15.5728     0.0000    72.0000 </r>
       <r>   -15.4885    27.8965    74.3502 </r>
       <r>   -15.4043     5.4663    74.8713 </r>
       <r>   -15.3200     9.7138    75.6989 </r>
       <r>   -15.2358     7.0226    76.3340 </r>
       <r>   -15.1516     8.5290    77.0947 </r>
       <r>   -15.0673    10.6022    78.0271 </r>
       <r>   -14.9831    55.8960    83.1133 </r>
       <r>   -14.8988    29.5788    85.7688 </r>
       <r>   -14.8146     0.0000    86.0000 </r>
       <r>   -14.7303     6.5269    86.5499 </r>
       <r>   -14.6461    14.6483    87.8455 </r>
       <r>   -14.5618    15.1764    89.1997 </r>
       <r>   -14.4776     8.9463    90.0000 </r>
       <r>   -14.3933   146.2954   102.3251 </r>
       <r>   -14.3091     3.2398   102.6403 </r>
       <r>   -14.2248     2.9751   102.9184 </r>
       <r>   -14.1406     7.6942   103.5858 </r>
       <r>   -14.0563     5.8736   104.1054 </r>
       <r>   -13.9721     6.5730   104.6703 </r>
       <r>   -13.8878     5.9026   105.2268 </r>
       <r>   -13.8036     3.3677   105.5508 </r>
       <r>   -13.7193     4.5698   105.9546 </r>
       <r>   -13.6351    14.7151   107.2126 </r>
       <r>   -13.5508    23.7638   109.2595 </r>
       <r>   -13.4666    14.1989   110.6071 </r>
       <r>   -13.3823    15.5115   112.0386 </r>
       <r>   -13.2981    31.0106   114.7318 </r>
       <r>   -13.2138    42.0681   118.5721 </r>
       <r>   -13.1296    15.4178   120.0000 </r>
       <r>   -13.0454     0.0000   120.0000 </r>
       <r>   -12.9611     0.0000   120.0000 </r>
       <r>   -12.8769     0.0000   120.0000 </r>
       <r>   -12.7926     0.0000   120.0000 </r>
       <r>   -12.7084    13.4322   121.1316 </r>
       <r>   -12.6241    22.4226   123.2435 </r>
       <r>   -12.5399    31.9573   126.0000 </r>
       <r>   -12.4556     0.0000   126.0000 </r>
       <r>   -12.3714     0.0000   126.0000 </r>
       <r>   -12.2871     0.0000   126.0000 </r>
       <r>   -12.2029     0.0000   126.0000 </r>
       <r>   -12.1186     2.7270   126.2297 </r>
       <r>   -12.0344    10.1207   127.1728 </r>
       <r>   -11.9501    13.8331   128.5220 </r>
       <r>   -11.8659    13.0820   129.7022 </r>
       <r>   -11.7816    28.1582   132.1244 </r>
       <r>   -11.6974    30.6064   134.8953 </r>
       <r>   -11.6131    29.6553   137.7774 </r>
       <r>   -11.5289     0.0000   138.0000 </r>
       <r>   -11.4446     0.0000   138.0000 </r>
       <r>   -11.3604    23.9221   140.0154 </r>
       <r>   -11.2761    42.7709   144.0000 </r>
       <r>   -11.1919    55.0279   148.6360 </r>
       <r>   -11.1076     8.9780   150.0000 </r>
       <r>   -11.0234     0.0000   150.0000 </r>
       <r>   -10.9391     0.0000   150.0000 </r>
       <r>   -10.8549     0.8367   150.0705 </r>
       <r>   -10.7707    65.7042   155.6059 </r>
       <r>   -10.6864   117.0189   165.5743 </r>
       <r>   -10.6022    12.9464   166.7366 </r>
       <r>   -10.5179    37.3707   169.9952 </r>
       <r>   -10.4337     5.8432   170.4923 </r>
       <r>   -10.3494    39.1586   174.0000 </r>
       <r>   -10.2652     8.7283   174.7353 </r>
       <r>   -10.1809    53.5080   180.0000 </r>
       <r>   -10.0967    38.1850   183.2170 </r>
       <r>   -10.0124    19.1439   185.0813 </r>
       <r>    -9.9282     9.2053   185.9509 </r>
       <r>    -9.8439     0.0000   186.0000 </r>
       <r>    -9.7597    30.8265   188.5971 </r>
       <r>    -9.6754    25.1953   190.8582 </r>
       <r>    -9.5912   173.8339   205.6807 </r>
       <r>    -9.5069    38.4437   209.0615 </r>
       <r>    -9.4227     6.4842   209.6957 </r>
       <r>    -9.3384     3.0768   210.0000 </r>
       <r>    -9.2542    20.6990   211.7439 </r>
       <r>    -9.1699     6.0794   212.5997 </r>
       <r>    -9.0857     4.6923   213.0307 </r>
       <r>    -9.0014    55.1317   217.7036 </r>
       <r>    -8.9172    25.9416   220.0566 </r>
       <r>    -8.8329    45.3469   223.9923 </r>
       <r>    -8.7487    15.4675   225.6872 </r>
       <r>    -8.6644    27.1172   228.0000 </r>
       <r>    -8.5802     0.0000   228.0000 </r>
       <r>    -8.4960     0.0003   228.0000 </r>
       <r>    -8.4117    42.8367   231.6089 </r>
       <r>    -8.3275    27.5649   234.1451 </r>
       <r>    -8.2432    36.1822   237.2880 </r>
       <r>    -8.1590    95.2922   245.7410 </r>
       <r>    -8.0747    22.5994   247.7169 </r>
       <r>    -7.9905    32.2974   250.8306 </r>
       <r>    -7.9062    18.0817   252.4249 </r>
       <r>    -7.8220    56.6825   257.2948 </r>
       <r>    -7.7377    47.8320   262.3563 </r>
       <r>    -7.6535    31.4310   265.1531 </r>
       <r>    -7.5692    34.8619   268.2752 </r>
       <r>    -7.4850    34.4472   271.3991 </r>
       <r>    -7.4007    26.6842   273.6944 </r>
       <r>    -7.3165    25.3799   275.9395 </r>
       <r>    -7.2322    10.0021   276.8985 </r>
       <r>    -7.1480    13.6460   278.0854 </r>
       <r>    -7.0637    17.1747   279.6310 </r>
       <r>    -6.9795    27.0241   282.0000 </r>
       <r>    -6.8952     0.0000   282.0000 </r>
       <r>    -6.8110     0.0000   282.0000 </r>
       <r>    -6.7267     0.0000   282.0000 </r>
       <r>    -6.6425     0.0000   282.0000 </r>
       <r>    -6.5582    15.3579   283.2939 </r>
       <r>    -6.4740    49.9966   288.0000 </r>
       <r>    -6.3897     0.0000   288.0000 </r>
       <r>    -6.3055     0.0000   288.0000 </r>
       <r>    -6.2213     0.0000   288.0000 </r>
       <r>    -6.1370     0.0000   288.0000 </r>
       <r>    -6.0528     0.0000   288.0000 </r>
       <r>    -5.9685     0.0000   288.0000 </r>
       <r>    -5.8843    91.0104   295.6675 </r>
       <r>    -5.8000    60.4393   301.0957 </r>
       <r>    -5.7158    46.3318   306.1022 </r>
       <r>    -5.6315    38.3300   309.4627 </r>
       <r>    -5.5473    95.1697   317.8565 </r>
       <r>    -5.4630    14.7062   320.0000 </r>
       <r>    -5.3788    15.6538   321.3188 </r>
       <r>    -5.2945    24.5957   324.0000 </r>
       <r>    -5.2103     0.0000   324.0000 </r>
       <r>    -5.1260     0.0000   324.0000 </r>
       <r>    -5.0418    11.2818   324.9505 </r>
       <r>    -4.9575    33.8129   329.1841 </r>
       <r>    -4.8733     7.9417   330.0000 </r>
       <r>    -4.7890     0.0000   330.0000 </r>
       <r>    -4.7048     0.0000   330.0000 </r>
       <r>    -4.6205     0.0000   330.0000 </r>
       <r>    -4.5363     0.0000   330.0000 </r>
       <r>    -4.4520     0.0000   330.0000 </r>
       <r>    -4.3678     0.0000   330.0000 </r>
       <r>    -4.2835     0.0000   330.0000 </r>
       <r>    -4.1993     0.0000   330.0000 </r>
       <r>    -4.1150     0.0000   330.0000 </r>
       <r>    -4.0308     0.0000   330.0000 </r>
       <r>    -3.9466     0.0000   330.0000 </r>
       <r>    -3.8623     0.0000   330.0000 </r>
       <r>    -3.7781     0.0000   330.0000 </r>
       <r>    -3.6938     0.0000   330.0000 </r>
       <r>    -3.6096     0.0000   330.0000 </r>
       <r>    -3.5253     0.0000   330.0000 </r>
       <r>    -3.4411     0.0000   330.0000 </r>
       <r>    -3.3568     0.0000   330.0000 </r>
       <r>    -3.2726     0.0000   330.0000 </r>
       <r>    -3.1883     0.0000   330.0000 </r>
       <r>    -3.1041     0.0000   330.0000 </r>
       <r>    -3.0198     0.0000   330.0000 </r>
       <r>    -2.9356     0.0000   330.0000 </r>
       <r>    -2.8513     0.0000   330.0000 </r>
       <r>    -2.7671     0.0000   330.0000 </r>
       <r>    -2.6828     0.0000   330.0000 </r>
       <r>    -2.5986     0.0000   330.0000 </r>
       <r>    -2.5143     0.0000   330.0000 </r>
       <r>    -2.4301     0.0000   330.0000 </r>
       <r>    -2.3458     0.0000   330.0000 </r>
       <r>    -2.2616     0.0000   330.0000 </r>
       <r>    -2.1773     0.0000   330.0000 </r>
       <r>    -2.0931     0.0000   330.0000 </r>
       <r>    -2.0088     0.0000   330.0000 </r>
       <r>    -1.9246     0.0000   330.0000 </r>
       <r>    -1.8403     0.0000   330.0000 </r>
       <r>    -1.7561     0.0000   330.0000 </r>
       <r>    -1.6719    40.5452   333.4159 </r>
       <r>    -1.5876    27.0083   335.9465 </r>
       <r>    -1.5034     0.0000   336.0000 </r>
       <r>    -1.4191     4.5407   336.3825 </r>
       <r>    -1.3349    18.8730   338.1124 </r>
       <r>    -1.2506    12.9010   339.3007 </r>
       <r>    -1.1664     5.4494   339.7989 </r>
       <r>    -1.0821    77.1415   346.3128 </r>
       <r>    -0.9979     5.0750   346.7702 </r>
       <r>    -0.9136    12.6471   347.8697 </r>
       <r>    -0.8294    26.9295   350.5093 </r>
       <r>    -0.7451   111.2833   359.9997 </r>
       <r>    -0.6609     0.0000   360.0000 </r>
       <r>    -0.5766     5.5137   360.4645 </r>
       <r>    -0.4924    20.8668   362.3910 </r>
       <r>    -0.4081    29.1601   364.9917 </r>
       <r>    -0.3239     7.2721   365.6268 </r>
       <r>    -0.2396     8.3035   366.3812 </r>
       <r>    -0.1554    21.7935   368.4099 </r>
       <r>    -0.0711    36.9430   371.6207 </r>
       <r>     0.0131    39.1559   375.1295 </r>
       <r>     0.0974    20.4308   377.0264 </r>
       <r>     0.1816    59.1823   382.3797 </r>
       <r>     0.2659    37.2333   386.0415 </r>
       <r>     0.3501    39.3139   389.4434 </r>
       <r>     0.4343    28.6641   392.1483 </r>
       <r>     0.5186    30.6214   394.8900 </r>
       <r>     0.6028    43.4889   398.7471 </r>
       <r>     0.6871    58.5880   404.2241 </r>
       <r>     0.7713    43.3470   408.0263 </r>
       <r>     0.8556   106.5017   417.4275 </r>
       <r>     0.9398    31.2291   420.4029 </r>
       <r>     1.0241    35.1571   423.4803 </r>
       <r>     1.1083    36.0924   426.7354 </r>
       <r>     1.1926    55.6327   431.8494 </r>
       <r>     1.2768    78.6303   438.8583 </r>
       <r>     1.3611    63.1046   444.5111 </r>
       <r>     1.4453    32.4263   447.6941 </r>
       <r>     1.5296     1.7325   448.0000 </r>
       <r>     1.6138     0.0000   448.0000 </r>
       <r>     1.6981     0.0000   448.0000 </r>
       <r>     1.7823     0.0000   448.0000 </r>
       <r>     1.8666     0.0000   448.0000 </r>
       <r>     1.9508     0.0000   448.0000 </r>
       <r>     2.0351     0.0000   448.0000 </r>
       <r>     2.1193     0.0000   448.0000 </r>
       <r>     2.2036     0.0000   448.0000 </r>
       <r>     2.2878     0.0000   448.0000 </r>
       <r>     2.3721     0.0000   448.0000 </r>
       <r>     2.4563     0.0000   448.0000 </r>
       <r>     2.5406     0.0000   448.0000 </r>
       <r>     2.6248     0.0000   448.0000 </r>
      </set>
     </set>
    </array>
   </total>
  </dos>
 </calculation>
 <structure name="finalpos" >
  <crystal>
   <varray name="basis" >
    <v>      23.54705411      -0.00030636       0.00000000 </v>
    <v>     -11.77374195      20.39209022       0.00000000 </v>
    <v>       0.00000000       0.00000000      20.00000000 </v>
   </varray>
   <i name="volume">   9603.40089749 </i>
   <varray name="rec_basis" >
    <v>       0.04246848       0.02451994       0.00000000 </v>
    <v>       0.00000064       0.04903899       0.00000000 </v>
    <v>       0.00000000       0.00000000       0.05000000 </v>
   </varray>
  </crystal>
  <varray name="positions" >
   <v>       0.37368806       0.62005015       0.49001656 </v>
   <v>       0.55621347       0.62175038       0.49070558 </v>
   <v>       0.49948805       0.70975348       0.38277080 </v>
   <v>       0.49953705       0.81500127       0.38287982 </v>
   <v>       0.17856652       0.49374033       0.38273746 </v>
   <v>       0.28380125       0.49375195       0.38271676 </v>
   <v>       0.37192837       0.43749022       0.49044165 </v>
   <v>       0.50034543       0.71002904       0.59794623 </v>
   <v>       0.50032909       0.81525317       0.59805336 </v>
   <v>       0.17866120       0.49389731       0.59791386 </v>
   <v>       0.28389926       0.49390218       0.59789416 </v>
   <v>       0.60296556       0.05297089       0.49035948 </v>
   <v>       0.37369868       0.77872165       0.49034935 </v>
   <v>       0.21500451       0.62005015       0.49024728 </v>
   <v>       0.03422832       0.43749226       0.49033118 </v>
   <v>       0.55623455       0.95952521       0.49081792 </v>
   <v>       0.94073886       0.39075815       0.49061955 </v>
   <v>       0.37195878       0.95952014       0.49027595 </v>
   <v>       0.28379909       0.81511503       0.38275384 </v>
   <v>       0.17856340       0.70991232       0.38277748 </v>
   <v>       0.69104677       0.19765332       0.38270173 </v>
   <v>       0.79626800       0.30286981       0.38284301 </v>
   <v>       0.03417946       0.62173850       0.49050733 </v>
   <v>       0.28382861       0.81513612       0.59793267 </v>
   <v>       0.17860332       0.70990858       0.59794878 </v>
   <v>       0.69115263       0.19713996       0.59786710 </v>
   <v>       0.79636193       0.30237838       0.59800658 </v>
   <v>       0.41870921       0.39076124       0.49084665 </v>
   <v>       0.60127378       0.39253684       0.49010859 </v>
   <v>       0.60130893       0.23381346       0.49007951 </v>
   <v>       0.94069658       0.57500841       0.49020806 </v>
   <v>       0.75990023       0.39243411       0.49046078 </v>
   <v>       0.47564927       0.30296481       0.38278060 </v>
   <v>       0.47566653       0.19774567       0.38277421 </v>
   <v>       0.79639761       0.51883724       0.38274233 </v>
   <v>       0.69121139       0.51892084       0.38269516 </v>
   <v>       0.60294449       0.57504744       0.49027147 </v>
   <v>       0.41872775       0.05303461       0.49080059 </v>
   <v>       0.47436258       0.30230515       0.59794641 </v>
   <v>       0.47442000       0.19711651       0.59794699 </v>
   <v>       0.79622363       0.51862029       0.59791608 </v>
   <v>       0.69102631       0.51867099       0.59786683 </v>
   <v>       0.46915910       0.52454456       0.49052547 </v>
   <v>       0.40043391       0.59329761       0.49018698 </v>
   <v>       0.46908138       0.62850949       0.49036296 </v>
   <v>       0.50284131       0.59383926       0.49055539 </v>
   <v>       0.50193676       0.79322340       0.43022176 </v>
   <v>       0.50190927       0.73387341       0.43016166 </v>
   <v>       0.49735314       0.70121579       0.49036141 </v>
   <v>       0.25975960       0.49155008       0.43009916 </v>
   <v>       0.20041396       0.49153745       0.43010977 </v>
   <v>       0.29251739       0.49638995       0.49030195 </v>
   <v>       0.39986675       0.49086670       0.49042969 </v>
   <v>       0.36521838       0.52464873       0.49029009 </v>
   <v>       0.50239860       0.73403165       0.55058373 </v>
   <v>       0.50240271       0.79337852       0.55064610 </v>
   <v>       0.20046916       0.49162594       0.55053845 </v>
   <v>       0.25981409       0.49163542       0.55052704 </v>
   <v>       0.40044218       0.83222179       0.49041215 </v>
   <v>       0.16150551       0.59329820       0.49029414 </v>
   <v>       0.12807614       0.52464570       0.49031718 </v>
   <v>       0.05965012       0.49086460       0.49035378 </v>
   <v>       0.49737407       0.82123621       0.49048163 </v>
   <v>       0.17250615       0.49637331       0.49032137 </v>
   <v>       0.50286203       0.93408242       0.49067339 </v>
   <v>       0.46909348       0.86565750       0.49055052 </v>
   <v>       0.50576266       0.04283853       0.49054824 </v>
   <v>       0.57505429       0.07843405       0.49041010 </v>
   <v>       0.60972943       0.14686091       0.49029028 </v>
   <v>       0.46918234       0.96969251       0.49056590 </v>
   <v>       0.36522736       0.86565240       0.49037303 </v>
   <v>       0.39989020       0.93407911       0.49040118 </v>
   <v>       0.95088209       0.48796403       0.49043592 </v>
   <v>       0.02402911       0.52453294       0.49040753 </v>
   <v>       0.20040782       0.73396196       0.43015145 </v>
   <v>       0.25975935       0.79329850       0.43014130 </v>
   <v>       0.29251658       0.82122840       0.49034386 </v>
   <v>       0.17248439       0.70121385       0.49036073 </v>
   <v>       0.77446686       0.27869397       0.43017711 </v>
   <v>       0.71513356       0.21935571       0.43009874 </v>
   <v>       0.68243283       0.19127651       0.49028157 </v>
   <v>       0.80243081       0.31129567       0.49043840 </v>
   <v>       0.84684923       0.38400247       0.49051032 </v>
   <v>       0.91527714       0.41867039       0.49053688 </v>
   <v>       0.05963817       0.59382673       0.49042980 </v>
   <v>       0.12806540       0.62850315       0.49035500 </v>
   <v>       0.25977392       0.79330037       0.55055840 </v>
   <v>       0.20042911       0.73395843       0.55056828 </v>
   <v>       0.71519733       0.21907071       0.55051714 </v>
   <v>       0.77452869       0.27842209       0.55059506 </v>
   <v>       0.50574599       0.48798064       0.49053339 </v>
   <v>       0.47208019       0.41868620       0.49064263 </v>
   <v>       0.50585718       0.38403316       0.49043951 </v>
   <v>       0.57450752       0.41926814       0.49024608 </v>
   <v>       0.57453324       0.18030988       0.49022938 </v>
   <v>       0.91526425       0.52163640       0.49032988 </v>
   <v>       0.84683255       0.48785612       0.49036940 </v>
   <v>       0.81340263       0.41920379       0.49045610 </v>
   <v>       0.47316130       0.21943570       0.43013439 </v>
   <v>       0.47315044       0.27876445       0.43013699 </v>
   <v>       0.47758984       0.31132405       0.49037678 </v>
   <v>       0.47761305       0.19131958       0.49037119 </v>
   <v>       0.71521793       0.52107002       0.43008514 </v>
   <v>       0.77454213       0.52103276       0.43011362 </v>
   <v>       0.80241028       0.51614022       0.49033117 </v>
   <v>       0.68242919       0.51620626       0.49027456 </v>
   <v>       0.60971711       0.48792307       0.49027205 </v>
   <v>       0.57504007       0.52167457       0.49036034 </v>
   <v>       0.50588509       0.14689066       0.49042253 </v>
   <v>       0.47209841       0.07846106       0.49061982 </v>
   <v>       0.47242186       0.27839901       0.55055294 </v>
   <v>       0.47244030       0.21906163       0.55055381 </v>
   <v>       0.77443697       0.52090153       0.55053390 </v>
   <v>       0.71511711       0.52093796       0.55050484 </v>
  </varray>
 </structure>
</modeling>
