<?xml version="1.0" encoding="ISO-8859-1"?>
<modeling>
 <generator>
  <i name="program" type="string">vasp </i>
  <i name="version" type="string">5.4.4.18Apr17-6-g9f103f2a35  </i>
  <i name="subversion" type="string">(build Jun 07 2020 16:50:00) complex            parallel </i>
  <i name="platform" type="string">LinuxIFC </i>
  <i name="date" type="string">2023 03 02 </i>
  <i name="time" type="string">08:30:39 </i>
 </generator>
 <incar>
  <i type="string" name="SYSTEM">Simulation for cell shape cell volume r</i>
  <i type="int" name="ISTART">     1</i>
  <i type="string" name="PREC">high</i>
  <i type="string" name="ALGO">48</i>
  <i type="int" name="ICHARG">    11</i>
  <i type="int" name="NELM">   200</i>
  <i type="int" name="IBRION">    -1</i>
  <i name="EDIFF">      0.00001000</i>
  <i name="EDIFFG">     -0.01000000</i>
  <i type="int" name="NSW">     0</i>
  <i type="int" name="ISIF">     2</i>
  <i name="ENCUT">    500.00000000</i>
  <i name="POTIM">      0.30000000</i>
  <i type="string" name="LREAL">A</i>
  <i type="int" name="ISMEAR">     0</i>
  <i name="SIGMA">      0.01000000</i>
  <i type="int" name="NWRITE">     0</i>
  <i type="logical" name="LWAVE"> F  </i>
  <i type="logical" name="LCHARG"> F  </i>
  <v type="int" name="KPOINT_BSE">    -1     0     0     0</v>
  <i type="int" name="NELM">   200</i>
  <i type="string" name="GGA">PE</i>
 </incar>
 <structure name="primitive_cell" >
  <crystal>
   <varray name="basis" >
    <v>      21.81601675       0.18730025       0.00000000 </v>
    <v>       0.18683946      21.81765091       0.00000000 </v>
    <v>       0.00000000       0.00000000      20.00000000 </v>
   </varray>
   <i name="volume">   9518.78485164 </i>
   <varray name="rec_basis" >
    <v>       0.04584125      -0.00039257       0.00000000 </v>
    <v>      -0.00039354       0.04583782       0.00000000 </v>
    <v>       0.00000000       0.00000000       0.05000000 </v>
   </varray>
  </crystal>
  <varray name="positions" >
   <v>       0.00007661      -0.06039900      -0.49065208 </v>
   <v>      -0.00008859      -0.06380960      -0.42070687 </v>
   <v>      -0.00205592      -0.11509240       0.47227977 </v>
   <v>       0.00056154       0.00076364       0.47118584 </v>
   <v>      -0.00084590      -0.11289073       0.41768706 </v>
   <v>      -0.00478733      -0.12126352      -0.38917766 </v>
   <v>      -0.00700899      -0.17199876      -0.49627780 </v>
   <v>      -0.05999507       0.00625977       0.43186087 </v>
   <v>       0.05757210       0.00180622       0.42599433 </v>
   <v>       0.00546279      -0.00835231      -0.37702586 </v>
   <v>       0.00314844       0.05696379      -0.48225813 </v>
   <v>      -0.11420012      -0.00390312      -0.47844031 </v>
   <v>       0.11872460      -0.01156219      -0.49002486 </v>
   <v>      -0.00894840      -0.17458930      -0.42581940 </v>
   <v>       0.00560708       0.05212754      -0.41250386 </v>
   <v>      -0.11541604       0.00381803       0.46757080 </v>
   <v>       0.11563060      -0.00479358       0.45590499 </v>
   <v>       0.04775464      -0.01311538      -0.34686979 </v>
   <v>      -0.03191262      -0.00801936      -0.33977335 </v>
   <v>      -0.00497616      -0.12320718      -0.33459582 </v>
   <v>      -0.06215256       0.01554087       0.36262343 </v>
   <v>       0.05412575       0.01037303       0.35669555 </v>
   <v>      -0.00948489      -0.22939691       0.46582709 </v>
   <v>       0.00203985       0.11564342       0.48876086 </v>
   <v>      -0.01291799      -0.21905092      -0.40152727 </v>
   <v>      -0.00557663       0.01776285       0.32027353 </v>
   <v>       0.00675664      -0.22932680       0.41344110 </v>
   <v>      -0.00043955       0.11997001       0.43437141 </v>
   <v>      -0.17197993       0.01236027       0.43583120 </v>
   <v>       0.00772629       0.10573918      -0.37327469 </v>
   <v>       0.16956815      -0.00208695       0.41828098 </v>
   <v>      -0.00827515      -0.01777902       0.28106113 </v>
   <v>      -0.11929843       0.02322457       0.33059564 </v>
   <v>       0.10850732       0.01252800       0.31878422 </v>
   <v>      -0.02955088      -0.27757152       0.49450269 </v>
   <v>       0.00974856       0.10116361      -0.31890936 </v>
   <v>       0.00342199       0.16883602      -0.47224639 </v>
   <v>      -0.17345760       0.02230970       0.36612478 </v>
   <v>       0.16534175       0.00677069       0.34848159 </v>
   <v>      -0.00557094       0.06144445       0.29231167 </v>
   <v>      -0.22871080      -0.00696115      -0.47528168 </v>
   <v>       0.23108414      -0.01866514      -0.49614660 </v>
   <v>       0.00668281       0.16321099      -0.40199876 </v>
   <v>      -0.22968329       0.01140591       0.47316350 </v>
   <v>       0.22986771      -0.00759589       0.44985968 </v>
   <v>      -0.12026518       0.03020368       0.27651203 </v>
   <v>       0.10506747       0.01912816       0.26474962 </v>
   <v>      -0.21765877       0.02879705       0.34152619 </v>
   <v>       0.20745966       0.00883035       0.31938449 </v>
   <v>      -0.02515014      -0.33736086       0.47223552 </v>
   <v>       0.00774081       0.20473508      -0.37181427 </v>
   <v>       0.00023157       0.22944613       0.49681029 </v>
   <v>       0.07340612      -0.33895706       0.45531213 </v>
   <v>      -0.00414098       0.23060747       0.44170302 </v>
   <v>      -0.27892801       0.03191031       0.44548635 </v>
   <v>       0.27825831      -0.00008964       0.41425715 </v>
   <v>       0.03173561      -0.36559053       0.45791854 </v>
   <v>      -0.12237071      -0.35429684       0.48392226 </v>
   <v>      -0.07717907      -0.37426518       0.47420103 </v>
   <v>      -0.33395471      -0.07048062       0.49461324 </v>
   <v>       0.32316872       0.02022350      -0.45584567 </v>
   <v>       0.00154071       0.27773312      -0.46621555 </v>
   <v>      -0.33812146       0.02653257       0.46898253 </v>
   <v>       0.33789439      -0.00134991       0.43855520 </v>
   <v>      -0.36277680      -0.02955608       0.48913104 </v>
   <v>       0.35625786       0.01082546      -0.49544097 </v>
   <v>       0.03659476      -0.42908871       0.45379360 </v>
   <v>      -0.07105252      -0.43730393       0.46657336 </v>
   <v>       0.14098876      -0.41924613       0.43298886 </v>
   <v>       0.00205361       0.32351480       0.40097477 </v>
   <v>      -0.00204889       0.33748633      -0.49057856 </v>
   <v>      -0.37806633       0.07749645       0.46372602 </v>
   <v>       0.38375140      -0.01182214       0.39049240 </v>
   <v>      -0.36041186       0.12239843       0.45108974 </v>
   <v>       0.37078913      -0.01979349       0.33868370 </v>
   <v>       0.09933259      -0.45515955       0.44611232 </v>
   <v>      -0.01386701      -0.46795507       0.46019826 </v>
   <v>       0.01896824      -0.46470765      -0.40612424 </v>
   <v>       0.39300252       0.02528443      -0.36749448 </v>
   <v>      -0.41187627      -0.14042309      -0.48939373 </v>
   <v>      -0.00113108       0.35614737       0.44205515 </v>
   <v>       0.41825293       0.01362599      -0.47983304 </v>
   <v>      -0.42588820      -0.03504697       0.49624995 </v>
   <v>      -0.17464037      -0.44690757       0.49266716 </v>
   <v>      -0.12873728      -0.47244327       0.46832802 </v>
   <v>      -0.00876584       0.36992530      -0.38906994 </v>
   <v>      -0.00702571       0.38313067      -0.44150997 </v>
   <v>       0.43421913       0.02821939      -0.40989308 </v>
   <v>      -0.44860205      -0.09667067      -0.48642548 </v>
   <v>       0.44503650      -0.01076534       0.40830514 </v>
   <v>      -0.01237457       0.48853685      -0.40267653 </v>
   <v>      -0.44066646       0.07047556       0.47164627 </v>
   <v>       0.10668282       0.48866782       0.45303613 </v>
   <v>       0.46534161       0.00371936       0.47311495 </v>
   <v>      -0.46788480       0.01337099       0.48444333 </v>
   <v>      -0.00788169       0.46502437       0.47413270 </v>
   <v>      -0.00918586       0.48899914       0.33894758 </v>
   <v>      -0.04538920       0.47452943      -0.35490403 </v>
   <v>      -0.00467792       0.41794363       0.42596181 </v>
   <v>      -0.46774295      -0.05896907       0.36455840 </v>
   <v>      -0.00173927       0.39141985       0.31312098 </v>
   <v>      -0.12765327       0.47519535       0.44410831 </v>
   <v>      -0.00921525       0.44463018      -0.45919399 </v>
   <v>       0.49697760      -0.10049270      -0.46907411 </v>
   <v>       0.48798867       0.04227663      -0.39767470 </v>
   <v>       0.46733582       0.12271484       0.44681216 </v>
   <v>      -0.45325412       0.17622406       0.47803480 </v>
   <v>       0.48927116      -0.02240602       0.35352677 </v>
   <v>      -0.47856812       0.12739439       0.46487348 </v>
   <v>      -0.00521375       0.43390877       0.35409630 </v>
   <v>       0.47937090       0.00419999       0.29986141 </v>
  </varray>
 </structure>
 <varray name="primitive_index" >
  <v type="int" >        1 </v>
  <v type="int" >        2 </v>
  <v type="int" >       29 </v>
  <v type="int" >       30 </v>
  <v type="int" >       97 </v>
  <v type="int" >       10 </v>
  <v type="int" >        8 </v>
  <v type="int" >       19 </v>
  <v type="int" >       16 </v>
  <v type="int" >       11 </v>
  <v type="int" >        4 </v>
  <v type="int" >       88 </v>
  <v type="int" >       89 </v>
  <v type="int" >        9 </v>
  <v type="int" >        3 </v>
  <v type="int" >       20 </v>
  <v type="int" >       27 </v>
  <v type="int" >       90 </v>
  <v type="int" >       91 </v>
  <v type="int" >       85 </v>
  <v type="int" >       18 </v>
  <v type="int" >       17 </v>
  <v type="int" >       34 </v>
  <v type="int" >       28 </v>
  <v type="int" >       84 </v>
  <v type="int" >       31 </v>
  <v type="int" >      104 </v>
  <v type="int" >       96 </v>
  <v type="int" >       21 </v>
  <v type="int" >        5 </v>
  <v type="int" >       26 </v>
  <v type="int" >      103 </v>
  <v type="int" >       23 </v>
  <v type="int" >       24 </v>
  <v type="int" >       77 </v>
  <v type="int" >       86 </v>
  <v type="int" >        7 </v>
  <v type="int" >       22 </v>
  <v type="int" >       25 </v>
  <v type="int" >      102 </v>
  <v type="int" >       93 </v>
  <v type="int" >       92 </v>
  <v type="int" >        6 </v>
  <v type="int" >       35 </v>
  <v type="int" >       33 </v>
  <v type="int" >       99 </v>
  <v type="int" >      100 </v>
  <v type="int" >       98 </v>
  <v type="int" >      101 </v>
  <v type="int" >       43 </v>
  <v type="int" >       87 </v>
  <v type="int" >       32 </v>
  <v type="int" >      106 </v>
  <v type="int" >      105 </v>
  <v type="int" >       82 </v>
  <v type="int" >       83 </v>
  <v type="int" >       42 </v>
  <v type="int" >      107 </v>
  <v type="int" >       44 </v>
  <v type="int" >      109 </v>
  <v type="int" >       95 </v>
  <v type="int" >       78 </v>
  <v type="int" >       53 </v>
  <v type="int" >       46 </v>
  <v type="int" >       52 </v>
  <v type="int" >       15 </v>
  <v type="int" >       41 </v>
  <v type="int" >       45 </v>
  <v type="int" >       65 </v>
  <v type="int" >      108 </v>
  <v type="int" >       36 </v>
  <v type="int" >       54 </v>
  <v type="int" >       47 </v>
  <v type="int" >      110 </v>
  <v type="int" >      111 </v>
  <v type="int" >       75 </v>
  <v type="int" >       40 </v>
  <v type="int" >       57 </v>
  <v type="int" >       58 </v>
  <v type="int" >       71 </v>
  <v type="int" >       37 </v>
  <v type="int" >       14 </v>
  <v type="int" >       51 </v>
  <v type="int" >       60 </v>
  <v type="int" >       74 </v>
  <v type="int" >       94 </v>
  <v type="int" >       13 </v>
  <v type="int" >       73 </v>
  <v type="int" >       80 </v>
  <v type="int" >       48 </v>
  <v type="int" >       72 </v>
  <v type="int" >       55 </v>
  <v type="int" >       62 </v>
  <v type="int" >       49 </v>
  <v type="int" >       50 </v>
  <v type="int" >       39 </v>
  <v type="int" >       64 </v>
  <v type="int" >       56 </v>
  <v type="int" >       38 </v>
  <v type="int" >       70 </v>
  <v type="int" >       61 </v>
  <v type="int" >       63 </v>
  <v type="int" >       12 </v>
  <v type="int" >       68 </v>
  <v type="int" >       59 </v>
  <v type="int" >       69 </v>
  <v type="int" >       66 </v>
  <v type="int" >       81 </v>
  <v type="int" >       79 </v>
  <v type="int" >       76 </v>
  <v type="int" >       67 </v>
 </varray>
 <kpoints>
  <generation param="listgenerated">
   <i name="divisions" type="int">      20 </i>
   <v>       0.00000000       0.00000000       0.00000000 </v>
   <v>       0.50000000       0.00000000       0.00000000 </v>
   <v>       0.50842875       0.49156997       0.00000000 </v>
   <v>       0.50000000       0.50000000       0.00000000 </v>
   <v>       0.49157125       0.50843003       0.00000000 </v>
   <v>       0.00000000       0.50000000       0.00000000 </v>
   <v>       0.00000000       0.00000000       0.00000000 </v>
  </generation>
  <varray name="kpointlist" >
   <v>       0.00000000       0.00000000       0.00000000 </v>
   <v>       0.02631579       0.00000000       0.00000000 </v>
   <v>       0.05263158       0.00000000       0.00000000 </v>
   <v>       0.07894737       0.00000000       0.00000000 </v>
   <v>       0.10526316       0.00000000       0.00000000 </v>
   <v>       0.13157895       0.00000000       0.00000000 </v>
   <v>       0.15789474       0.00000000       0.00000000 </v>
   <v>       0.18421053       0.00000000       0.00000000 </v>
   <v>       0.21052632       0.00000000       0.00000000 </v>
   <v>       0.23684211       0.00000000       0.00000000 </v>
   <v>       0.26315789       0.00000000       0.00000000 </v>
   <v>       0.28947368       0.00000000       0.00000000 </v>
   <v>       0.31578947       0.00000000       0.00000000 </v>
   <v>       0.34210526       0.00000000       0.00000000 </v>
   <v>       0.36842105       0.00000000       0.00000000 </v>
   <v>       0.39473684       0.00000000       0.00000000 </v>
   <v>       0.42105263       0.00000000       0.00000000 </v>
   <v>       0.44736842       0.00000000       0.00000000 </v>
   <v>       0.47368421       0.00000000       0.00000000 </v>
   <v>       0.50000000       0.00000000       0.00000000 </v>
   <v>       0.50000000       0.00000000       0.00000000 </v>
   <v>       0.50044362       0.02587210       0.00000000 </v>
   <v>       0.50088724       0.05174421       0.00000000 </v>
   <v>       0.50133085       0.07761631       0.00000000 </v>
   <v>       0.50177447       0.10348841       0.00000000 </v>
   <v>       0.50221809       0.12936052       0.00000000 </v>
   <v>       0.50266171       0.15523262       0.00000000 </v>
   <v>       0.50310533       0.18110473       0.00000000 </v>
   <v>       0.50354895       0.20697683       0.00000000 </v>
   <v>       0.50399256       0.23284893       0.00000000 </v>
   <v>       0.50443618       0.25872104       0.00000000 </v>
   <v>       0.50487980       0.28459314       0.00000000 </v>
   <v>       0.50532342       0.31046524       0.00000000 </v>
   <v>       0.50576704       0.33633735       0.00000000 </v>
   <v>       0.50621066       0.36220945       0.00000000 </v>
   <v>       0.50665427       0.38808156       0.00000000 </v>
   <v>       0.50709789       0.41395366       0.00000000 </v>
   <v>       0.50754151       0.43982576       0.00000000 </v>
   <v>       0.50798513       0.46569787       0.00000000 </v>
   <v>       0.50842875       0.49156997       0.00000000 </v>
   <v>       0.50842875       0.49156997       0.00000000 </v>
   <v>       0.50798513       0.49201366       0.00000000 </v>
   <v>       0.50754151       0.49245734       0.00000000 </v>
   <v>       0.50709789       0.49290103       0.00000000 </v>
   <v>       0.50665427       0.49334471       0.00000000 </v>
   <v>       0.50621066       0.49378840       0.00000000 </v>
   <v>       0.50576704       0.49423209       0.00000000 </v>
   <v>       0.50532342       0.49467577       0.00000000 </v>
   <v>       0.50487980       0.49511946       0.00000000 </v>
   <v>       0.50443618       0.49556314       0.00000000 </v>
   <v>       0.50399256       0.49600683       0.00000000 </v>
   <v>       0.50354895       0.49645051       0.00000000 </v>
   <v>       0.50310533       0.49689420       0.00000000 </v>
   <v>       0.50266171       0.49733789       0.00000000 </v>
   <v>       0.50221809       0.49778157       0.00000000 </v>
   <v>       0.50177447       0.49822526       0.00000000 </v>
   <v>       0.50133085       0.49866894       0.00000000 </v>
   <v>       0.50088724       0.49911263       0.00000000 </v>
   <v>       0.50044362       0.49955631       0.00000000 </v>
   <v>       0.50000000       0.50000000       0.00000000 </v>
   <v>       0.50000000       0.50000000       0.00000000 </v>
   <v>       0.49955638       0.50044369       0.00000000 </v>
   <v>       0.49911276       0.50088737       0.00000000 </v>
   <v>       0.49866915       0.50133106       0.00000000 </v>
   <v>       0.49822553       0.50177474       0.00000000 </v>
   <v>       0.49778191       0.50221843       0.00000000 </v>
   <v>       0.49733829       0.50266211       0.00000000 </v>
   <v>       0.49689467       0.50310580       0.00000000 </v>
   <v>       0.49645105       0.50354949       0.00000000 </v>
   <v>       0.49600744       0.50399317       0.00000000 </v>
   <v>       0.49556382       0.50443686       0.00000000 </v>
   <v>       0.49512020       0.50488054       0.00000000 </v>
   <v>       0.49467658       0.50532423       0.00000000 </v>
   <v>       0.49423296       0.50576791       0.00000000 </v>
   <v>       0.49378934       0.50621160       0.00000000 </v>
   <v>       0.49334573       0.50665529       0.00000000 </v>
   <v>       0.49290211       0.50709897       0.00000000 </v>
   <v>       0.49245849       0.50754266       0.00000000 </v>
   <v>       0.49201487       0.50798634       0.00000000 </v>
   <v>       0.49157125       0.50843003       0.00000000 </v>
   <v>       0.49157125       0.50843003       0.00000000 </v>
   <v>       0.46569908       0.50798634       0.00000000 </v>
   <v>       0.43982691       0.50754266       0.00000000 </v>
   <v>       0.41395474       0.50709897       0.00000000 </v>
   <v>       0.38808257       0.50665529       0.00000000 </v>
   <v>       0.36221040       0.50621160       0.00000000 </v>
   <v>       0.33633823       0.50576791       0.00000000 </v>
   <v>       0.31046605       0.50532423       0.00000000 </v>
   <v>       0.28459388       0.50488054       0.00000000 </v>
   <v>       0.25872171       0.50443686       0.00000000 </v>
   <v>       0.23284954       0.50399317       0.00000000 </v>
   <v>       0.20697737       0.50354949       0.00000000 </v>
   <v>       0.18110520       0.50310580       0.00000000 </v>
   <v>       0.15523303       0.50266211       0.00000000 </v>
   <v>       0.12936086       0.50221843       0.00000000 </v>
   <v>       0.10348868       0.50177474       0.00000000 </v>
   <v>       0.07761651       0.50133106       0.00000000 </v>
   <v>       0.05174434       0.50088737       0.00000000 </v>
   <v>       0.02587217       0.50044369       0.00000000 </v>
   <v>       0.00000000       0.50000000       0.00000000 </v>
   <v>       0.00000000       0.50000000       0.00000000 </v>
   <v>       0.00000000       0.47368421       0.00000000 </v>
   <v>       0.00000000       0.44736842       0.00000000 </v>
   <v>       0.00000000       0.42105263       0.00000000 </v>
   <v>       0.00000000       0.39473684       0.00000000 </v>
   <v>       0.00000000       0.36842105       0.00000000 </v>
   <v>       0.00000000       0.34210526       0.00000000 </v>
   <v>       0.00000000       0.31578947       0.00000000 </v>
   <v>       0.00000000       0.28947368       0.00000000 </v>
   <v>       0.00000000       0.26315789       0.00000000 </v>
   <v>       0.00000000       0.23684211       0.00000000 </v>
   <v>       0.00000000       0.21052632       0.00000000 </v>
   <v>       0.00000000       0.18421053       0.00000000 </v>
   <v>       0.00000000       0.15789474       0.00000000 </v>
   <v>       0.00000000       0.13157895       0.00000000 </v>
   <v>       0.00000000       0.10526316       0.00000000 </v>
   <v>       0.00000000       0.07894737       0.00000000 </v>
   <v>       0.00000000       0.05263158       0.00000000 </v>
   <v>       0.00000000       0.02631579       0.00000000 </v>
   <v>       0.00000000       0.00000000       0.00000000 </v>
  </varray>
  <varray name="weights" >
   <v>       0.00833333 </v>
   <v>       0.00833333 </v>
   <v>       0.00833333 </v>
   <v>       0.00833333 </v>
   <v>       0.00833333 </v>
   <v>       0.00833333 </v>
   <v>       0.00833333 </v>
   <v>       0.00833333 </v>
   <v>       0.00833333 </v>
   <v>       0.00833333 </v>
   <v>       0.00833333 </v>
   <v>       0.00833333 </v>
   <v>       0.00833333 </v>
   <v>       0.00833333 </v>
   <v>       0.00833333 </v>
   <v>       0.00833333 </v>
   <v>       0.00833333 </v>
   <v>       0.00833333 </v>
   <v>       0.00833333 </v>
   <v>       0.00833333 </v>
   <v>       0.00833333 </v>
   <v>       0.00833333 </v>
   <v>       0.00833333 </v>
   <v>       0.00833333 </v>
   <v>       0.00833333 </v>
   <v>       0.00833333 </v>
   <v>       0.00833333 </v>
   <v>       0.00833333 </v>
   <v>       0.00833333 </v>
   <v>       0.00833333 </v>
   <v>       0.00833333 </v>
   <v>       0.00833333 </v>
   <v>       0.00833333 </v>
   <v>       0.00833333 </v>
   <v>       0.00833333 </v>
   <v>       0.00833333 </v>
   <v>       0.00833333 </v>
   <v>       0.00833333 </v>
   <v>       0.00833333 </v>
   <v>       0.00833333 </v>
   <v>       0.00833333 </v>
   <v>       0.00833333 </v>
   <v>       0.00833333 </v>
   <v>       0.00833333 </v>
   <v>       0.00833333 </v>
   <v>       0.00833333 </v>
   <v>       0.00833333 </v>
   <v>       0.00833333 </v>
   <v>       0.00833333 </v>
   <v>       0.00833333 </v>
   <v>       0.00833333 </v>
   <v>       0.00833333 </v>
   <v>       0.00833333 </v>
   <v>       0.00833333 </v>
   <v>       0.00833333 </v>
   <v>       0.00833333 </v>
   <v>       0.00833333 </v>
   <v>       0.00833333 </v>
   <v>       0.00833333 </v>
   <v>       0.00833333 </v>
   <v>       0.00833333 </v>
   <v>       0.00833333 </v>
   <v>       0.00833333 </v>
   <v>       0.00833333 </v>
   <v>       0.00833333 </v>
   <v>       0.00833333 </v>
   <v>       0.00833333 </v>
   <v>       0.00833333 </v>
   <v>       0.00833333 </v>
   <v>       0.00833333 </v>
   <v>       0.00833333 </v>
   <v>       0.00833333 </v>
   <v>       0.00833333 </v>
   <v>       0.00833333 </v>
   <v>       0.00833333 </v>
   <v>       0.00833333 </v>
   <v>       0.00833333 </v>
   <v>       0.00833333 </v>
   <v>       0.00833333 </v>
   <v>       0.00833333 </v>
   <v>       0.00833333 </v>
   <v>       0.00833333 </v>
   <v>       0.00833333 </v>
   <v>       0.00833333 </v>
   <v>       0.00833333 </v>
   <v>       0.00833333 </v>
   <v>       0.00833333 </v>
   <v>       0.00833333 </v>
   <v>       0.00833333 </v>
   <v>       0.00833333 </v>
   <v>       0.00833333 </v>
   <v>       0.00833333 </v>
   <v>       0.00833333 </v>
   <v>       0.00833333 </v>
   <v>       0.00833333 </v>
   <v>       0.00833333 </v>
   <v>       0.00833333 </v>
   <v>       0.00833333 </v>
   <v>       0.00833333 </v>
   <v>       0.00833333 </v>
   <v>       0.00833333 </v>
   <v>       0.00833333 </v>
   <v>       0.00833333 </v>
   <v>       0.00833333 </v>
   <v>       0.00833333 </v>
   <v>       0.00833333 </v>
   <v>       0.00833333 </v>
   <v>       0.00833333 </v>
   <v>       0.00833333 </v>
   <v>       0.00833333 </v>
   <v>       0.00833333 </v>
   <v>       0.00833333 </v>
   <v>       0.00833333 </v>
   <v>       0.00833333 </v>
   <v>       0.00833333 </v>
   <v>       0.00833333 </v>
   <v>       0.00833333 </v>
   <v>       0.00833333 </v>
   <v>       0.00833333 </v>
   <v>       0.00833333 </v>
  </varray>
 </kpoints>
 <parameters>
  <separator name="general" >
   <i type="string" name="SYSTEM">Simulation for cell shape cell volume r</i>
   <i type="logical" name="LCOMPAT"> F  </i>
  </separator>
  <separator name="electronic" >
   <i type="string" name="PREC">high</i>
   <i name="ENMAX">    500.00000000</i>
   <i name="ENAUG">    644.87300000</i>
   <i name="EDIFF">      0.00001000</i>
   <i type="int" name="IALGO">    38</i>
   <i type="int" name="IWAVPR">    10</i>
   <i type="int" name="NBANDS">   272</i>
   <i name="NELECT">    404.00000000</i>
   <i type="int" name="TURBO">     0</i>
   <i type="int" name="IRESTART">     0</i>
   <i type="int" name="NREBOOT">     0</i>
   <i type="int" name="NMIN">     0</i>
   <i name="EREF">      0.00000000</i>
   <separator name="electronic smearing" >
    <i type="int" name="ISMEAR">     0</i>
    <i name="SIGMA">      0.01000000</i>
    <i name="KSPACING">      0.50000000</i>
    <i type="logical" name="KGAMMA"> T  </i>
   </separator>
   <separator name="electronic projectors" >
    <i type="logical" name="LREAL"> T  </i>
    <v name="ROPT">     -0.00040000     -0.00040000     -0.00040000     -0.00040000</v>
    <i type="int" name="LMAXPAW">  -100</i>
    <i type="int" name="LMAXMIX">     2</i>
    <i type="logical" name="NLSPLINE"> F  </i>
   </separator>
   <separator name="electronic startup" >
    <i type="int" name="ISTART">     1</i>
    <i type="int" name="ICHARG">    11</i>
    <i type="int" name="INIWAV">     1</i>
   </separator>
   <separator name="electronic spin" >
    <i type="int" name="ISPIN">     1</i>
    <i type="logical" name="LNONCOLLINEAR"> F  </i>
    <v name="MAGMOM">      1.00000000      1.00000000      1.00000000      1.00000000      1.00000000      1.00000000      1.00000000      1.00000000      1.00000000      1.00000000      1.00000000      1.00000000      1.00000000      1.00000000      1.00000000      1.00000000      1.00000000      1.00000000      1.00000000      1.00000000
      1.00000000      1.00000000      1.00000000      1.00000000      1.00000000      1.00000000      1.00000000      1.00000000      1.00000000      1.00000000      1.00000000      1.00000000      1.00000000      1.00000000      1.00000000      1.00000000      1.00000000      1.00000000      1.00000000      1.00000000
      1.00000000      1.00000000      1.00000000      1.00000000      1.00000000      1.00000000      1.00000000      1.00000000      1.00000000      1.00000000      1.00000000      1.00000000      1.00000000      1.00000000      1.00000000      1.00000000      1.00000000      1.00000000      1.00000000      1.00000000
      1.00000000      1.00000000      1.00000000      1.00000000      1.00000000      1.00000000      1.00000000      1.00000000      1.00000000      1.00000000      1.00000000      1.00000000      1.00000000      1.00000000      1.00000000      1.00000000      1.00000000      1.00000000      1.00000000      1.00000000
      1.00000000      1.00000000      1.00000000      1.00000000      1.00000000      1.00000000      1.00000000      1.00000000      1.00000000      1.00000000      1.00000000      1.00000000      1.00000000      1.00000000      1.00000000      1.00000000      1.00000000      1.00000000      1.00000000      1.00000000
      1.00000000      1.00000000      1.00000000      1.00000000      1.00000000      1.00000000      1.00000000      1.00000000      1.00000000      1.00000000      1.00000000</v>
    <i name="NUPDOWN">     -1.00000000</i>
    <i type="logical" name="LSORBIT"> F  </i>
    <v name="SAXIS">      0.00000000      0.00000000      1.00000000</v>
    <i type="logical" name="LSPIRAL"> F  </i>
    <v name="QSPIRAL">      0.00000000      0.00000000      0.00000000</v>
    <i type="logical" name="LZEROZ"> F  </i>
   </separator>
   <separator name="electronic exchange-correlation" >
    <i type="logical" name="LASPH"> F  </i>
    <i type="logical" name="LMETAGGA"> F  </i>
   </separator>
   <separator name="electronic convergence" >
    <i type="int" name="NELM">   200</i>
    <i type="int" name="NELMDL">     0</i>
    <i type="int" name="NELMIN">     2</i>
    <i name="ENINI">    500.00000000</i>
    <separator name="electronic convergence detail" >
     <i type="logical" name="LDIAG"> T  </i>
     <i type="logical" name="LSUBROT"> F  </i>
     <i name="WEIMIN">      0.00000000</i>
     <i name="EBREAK">      0.00000001</i>
     <i name="DEPER">      0.30000000</i>
     <i type="int" name="NRMM">     4</i>
     <i name="TIME">      0.40000000</i>
    </separator>
   </separator>
   <separator name="electronic mixer" >
    <i name="AMIX">      0.40000000</i>
    <i name="BMIX">      1.00000000</i>
    <i name="AMIN">      0.10000000</i>
    <i name="AMIX_MAG">      1.60000000</i>
    <i name="BMIX_MAG">      1.00000000</i>
    <separator name="electronic mixer details" >
     <i type="int" name="IMIX">     4</i>
     <i type="logical" name="MIXFIRST"> F  </i>
     <i type="int" name="MAXMIX">   -45</i>
     <i name="WC">    100.00000000</i>
     <i type="int" name="INIMIX">     1</i>
     <i type="int" name="MIXPRE">     1</i>
     <i type="int" name="MREMOVE">     5</i>
    </separator>
   </separator>
   <separator name="electronic dipolcorrection" >
    <i type="logical" name="LDIPOL"> F  </i>
    <i type="logical" name="LMONO"> F  </i>
    <i type="int" name="IDIPOL">     0</i>
    <i name="EPSILON">      1.00000000</i>
    <v name="DIPOL">   -100.00000000   -100.00000000   -100.00000000</v>
    <i name="EFIELD">      0.00000000</i>
   </separator>
  </separator>
  <separator name="grids" >
   <i type="int" name="NGX">   160</i>
   <i type="int" name="NGY">   160</i>
   <i type="int" name="NGZ">   150</i>
   <i type="int" name="NGXF">   240</i>
   <i type="int" name="NGYF">   240</i>
   <i type="int" name="NGZF">   224</i>
   <i type="logical" name="ADDGRID"> F  </i>
  </separator>
  <separator name="ionic" >
   <i type="int" name="NSW">     0</i>
   <i type="int" name="IBRION">    -1</i>
   <i type="int" name="MDALGO">     0</i>
   <i type="int" name="ISIF">     2</i>
   <i name="PSTRESS">      0.00000000</i>
   <i name="EDIFFG">     -0.01000000</i>
   <i type="int" name="NFREE">     0</i>
   <i name="POTIM">      0.30000000</i>
   <i name="SMASS">     -3.00000000</i>
   <i name="SCALEE">      1.00000000</i>
  </separator>
  <separator name="ionic md" >
   <i name="TEBEG">      0.00010000</i>
   <i name="TEEND">      0.00010000</i>
   <i type="int" name="NBLOCK">     1</i>
   <i type="int" name="KBLOCK">     1</i>
   <i type="int" name="NPACO">   256</i>
   <i name="APACO">     16.00000000</i>
  </separator>
  <separator name="symmetry" >
   <i type="int" name="ISYM">     2</i>
   <i name="SYMPREC">      0.00001000</i>
  </separator>
  <separator name="dos" >
   <i type="int" name="LORBIT">     0</i>
   <v name="RWIGS">     -1.00000000     -1.00000000     -1.00000000     -1.00000000</v>
   <i type="int" name="NEDOS">   301</i>
   <i name="EMIN">     10.00000000</i>
   <i name="EMAX">    -10.00000000</i>
   <i name="EFERMI">      0.00000000</i>
  </separator>
  <separator name="writing" >
   <i type="int" name="NWRITE">     0</i>
   <i type="logical" name="LWAVE"> F  </i>
   <i type="logical" name="LDOWNSAMPLE"> F  </i>
   <i type="logical" name="LCHARG"> F  </i>
   <i type="logical" name="LPARD"> F  </i>
   <i type="logical" name="LVTOT"> F  </i>
   <i type="logical" name="LVHAR"> F  </i>
   <i type="logical" name="LELF"> F  </i>
   <i type="logical" name="LOPTICS"> F  </i>
   <v name="STM">      0.00000000      0.00000000      0.00000000      0.00000000      0.00000000      0.00000000      0.00000000</v>
  </separator>
  <separator name="performance" >
   <i type="int" name="NPAR">    16</i>
   <i type="int" name="NSIM">     4</i>
   <i type="int" name="NBLK">    -1</i>
   <i type="logical" name="LPLANE"> T  </i>
   <i type="logical" name="LSCALAPACK"> T  </i>
   <i type="logical" name="LSCAAWARE"> F  </i>
   <i type="logical" name="LSCALU"> F  </i>
   <i type="logical" name="LASYNC"> F  </i>
   <i type="logical" name="LORBITALREAL"> F  </i>
  </separator>
  <separator name="miscellaneous" >
   <i type="int" name="IDIOT">     3</i>
   <i type="int" name="ISPECIAL">     0</i>
   <i type="logical" name="LMUSIC"> F  </i>
   <v name="POMASS">     12.01100000     16.00000000     14.00100000      1.00000000</v>
   <v name="DARWINR">      0.00000000      0.00000000      0.00000000      0.00000000</v>
   <v name="DARWINV">      1.00000000      1.00000000      1.00000000      1.00000000</v>
   <i type="logical" name="LCORR"> T  </i>
  </separator>
  <i type="logical" name="GGA_COMPAT"> T  </i>
  <i type="logical" name="LBERRY"> F  </i>
  <i type="int" name="ICORELEVEL">     0</i>
  <i type="logical" name="LDAU"> F  </i>
  <i type="int" name="I_CONSTRAINED_M">     0</i>
  <separator name="electronic exchange-correlation" >
   <i type="string" name="GGA">PE</i>
   <i type="int" name="VOSKOWN">     0</i>
   <i type="logical" name="LHFCALC"> F  </i>
   <i type="string" name="PRECFOCK"></i>
   <i type="logical" name="LSYMGRAD"> F  </i>
   <i type="logical" name="LHFONE"> F  </i>
   <i type="logical" name="LRHFCALC"> F  </i>
   <i type="logical" name="LTHOMAS"> F  </i>
   <i type="logical" name="LMODELHF"> F  </i>
   <i name="ENCUT4O">     -1.00000000</i>
   <i type="int" name="EXXOEP">     0</i>
   <i type="int" name="FOURORBIT">     0</i>
   <i name="AEXX">      0.00000000</i>
   <i name="HFALPHA">      0.00000000</i>
   <i name="MCALPHA">      0.00000000</i>
   <i name="ALDAX">      1.00000000</i>
   <i name="AGGAX">      1.00000000</i>
   <i name="ALDAC">      1.00000000</i>
   <i name="AGGAC">      1.00000000</i>
   <i type="int" name="NKREDX">     1</i>
   <i type="int" name="NKREDY">     1</i>
   <i type="int" name="NKREDZ">     1</i>
   <i type="logical" name="SHIFTRED"> F  </i>
   <i type="logical" name="ODDONLY"> F  </i>
   <i type="logical" name="EVENONLY"> F  </i>
   <i type="int" name="LMAXFOCK">     0</i>
   <i type="int" name="NMAXFOCKAE">     0</i>
   <i type="logical" name="LFOCKAEDFT"> F  </i>
   <i name="HFSCREEN">      0.00000000</i>
   <i name="HFSCREENC">      0.00000000</i>
   <i type="int" name="NBANDSGWLOW">     0</i>
  </separator>
  <separator name="vdW DFT" >
   <i type="logical" name="LUSE_VDW"> F  </i>
   <i name="Zab_VDW">     -0.84910000</i>
   <i name="PARAM1">      0.12340000</i>
   <i name="PARAM2">      1.00000000</i>
   <i name="PARAM3">      0.00000000</i>
  </separator>
  <separator name="model GW" >
   <i type="int" name="MODEL_GW">     0</i>
   <i name="MODEL_EPS0">     51.45289109</i>
   <i name="MODEL_ALPHA">      1.00000000</i>
  </separator>
  <separator name="linear response parameters" >
   <i type="logical" name="LEPSILON"> F  </i>
   <i type="logical" name="LRPA"> F  </i>
   <i type="logical" name="LNABLA"> F  </i>
   <i type="logical" name="LVEL"> F  </i>
   <i type="int" name="KINTER">     0</i>
   <i name="CSHIFT">      0.10000000</i>
   <i name="OMEGAMAX">     -1.00000000</i>
   <i name="DEG_THRESHOLD">      0.00200000</i>
   <i name="RTIME">     -0.10000000</i>
   <i name="WPLASMAI">      0.00000000</i>
   <v name="DFIELD">      0.00000000      0.00000000      0.00000000</v>
   <v name="WPLASMA">      0.00000000      0.00000000      0.00000000      0.00000000      0.00000000      0.00000000      0.00000000      0.00000000      0.00000000</v>
  </separator>
  <separator name="orbital magnetization" >
   <i type="logical" name="NUCIND"> F  </i>
   <v name="MAGPOS">      0.00000000      0.00000000      0.00000000</v>
   <i type="logical" name="LNICSALL"> T  </i>
   <i type="logical" name="ORBITALMAG"> F  </i>
   <i type="logical" name="LMAGBLOCH"> F  </i>
   <i type="logical" name="LCHIMAG"> F  </i>
   <i type="logical" name="LGAUGE"> T  </i>
   <i type="int" name="MAGATOM">     0</i>
   <v name="MAGDIPOL">      0.00000000      0.00000000      0.00000000</v>
   <v name="AVECCONST">      0.00000000      0.00000000      0.00000000</v>
  </separator>
  <separator name="response functions" >
   <i type="logical" name="LADDER"> F  </i>
   <i type="logical" name="LRPAFORCE"> F  </i>
   <i type="logical" name="LFXC"> F  </i>
   <i type="logical" name="LHARTREE"> T  </i>
   <i type="int" name="IBSE">     0</i>
   <v type="int" name="KPOINT">    -1     0     0     0</v>
   <i type="logical" name="LTCTE"> F  </i>
   <i type="logical" name="LTETE"> F  </i>
   <i type="logical" name="LTRIPLET"> F  </i>
   <i type="logical" name="LFXCEPS"> F  </i>
   <i type="logical" name="LFXHEG"> F  </i>
   <i type="int" name="NATURALO">     2</i>
   <i type="logical" name="L2ORDER"> F  </i>
   <i type="logical" name="LMP2LT"> F  </i>
   <i type="logical" name="LUSEW"> F  </i>
   <i name="ENCUTGW">     -2.00000000</i>
   <i name="ENCUTGWSOFT">     -2.00000000</i>
   <i name="ENCUTLF">     -1.00000000</i>
   <i type="int" name="LMAXMP2">    -1</i>
   <i name="SCISSOR">      0.00000000</i>
   <i type="int" name="NOMEGA">     0</i>
   <i type="int" name="NOMEGAR">     0</i>
   <i type="int" name="NBANDSGW">    -1</i>
   <i type="int" name="NBANDSO">    -1</i>
   <i type="int" name="NBANDSV">    -1</i>
   <i type="int" name="NELM">   200</i>
   <i type="int" name="NELMHF">     1</i>
   <i type="int" name="DIM">     3</i>
   <i type="int" name="ANTIRES">     0</i>
   <i name="OMEGAMAX">    -30.00000000</i>
   <i name="OMEGAMIN">    -30.00000000</i>
   <i name="OMEGATL">   -200.00000000</i>
   <i type="int" name="OMEGAGRID">   140</i>
   <i name="CSHIFT">     -0.10000000</i>
   <i type="logical" name="SELFENERGY"> F  </i>
   <i type="logical" name="LSPECTRAL"> F  </i>
   <i type="logical" name="LSPECTRALGW"> F  </i>
   <i type="logical" name="LSINGLES"> F  </i>
   <i type="logical" name="LFERMIGW"> F  </i>
   <i type="logical" name="ODDONLYGW"> F  </i>
   <i type="logical" name="EVENONLYGW"> F  </i>
   <i type="int" name="NKREDLFX">     1</i>
   <i type="int" name="NKREDLFY">     1</i>
   <i type="int" name="NKREDLFZ">     1</i>
   <i type="int" name="MAXMEM">  2800</i>
   <i type="int" name="TELESCOPE">     0</i>
   <i type="int" name="TAUPAR">     1</i>
   <i type="int" name="OMEGAPAR">    -1</i>
   <i name="LAMBDA">      1.00000000</i>
  </separator>
  <separator name="External order field" >
   <i name="OFIELD_KAPPA">      0.00000000</i>
   <v name="OFIELD_K">      0.00000000      0.00000000      0.00000000</v>
   <i name="OFIELD_Q6_NEAR">      0.00000000</i>
   <i name="OFIELD_Q6_FAR">      0.00000000</i>
   <i name="OFIELD_A">      0.00000000</i>
  </separator>
  <separator name="solvation model" >
   <i type="logical" name="LSOL"> F  </i>
  </separator>
 </parameters>
 <atominfo>
  <atoms>     111 </atoms>
  <types>       4 </types>
  <array name="atoms" >
   <dimension dim="1">ion</dimension>
   <field type="string">element</field>
   <field type="int">atomtype</field>
   <set>
    <rc><c>C </c><c>   1</c></rc>
    <rc><c>C </c><c>   1</c></rc>
    <rc><c>C </c><c>   1</c></rc>
    <rc><c>C </c><c>   1</c></rc>
    <rc><c>C </c><c>   1</c></rc>
    <rc><c>C </c><c>   1</c></rc>
    <rc><c>C </c><c>   1</c></rc>
    <rc><c>C </c><c>   1</c></rc>
    <rc><c>C </c><c>   1</c></rc>
    <rc><c>C </c><c>   1</c></rc>
    <rc><c>C </c><c>   1</c></rc>
    <rc><c>C </c><c>   1</c></rc>
    <rc><c>C </c><c>   1</c></rc>
    <rc><c>C </c><c>   1</c></rc>
    <rc><c>C </c><c>   1</c></rc>
    <rc><c>C </c><c>   1</c></rc>
    <rc><c>C </c><c>   1</c></rc>
    <rc><c>C </c><c>   1</c></rc>
    <rc><c>C </c><c>   1</c></rc>
    <rc><c>C </c><c>   1</c></rc>
    <rc><c>C </c><c>   1</c></rc>
    <rc><c>C </c><c>   1</c></rc>
    <rc><c>C </c><c>   1</c></rc>
    <rc><c>C </c><c>   1</c></rc>
    <rc><c>C </c><c>   1</c></rc>
    <rc><c>C </c><c>   1</c></rc>
    <rc><c>C </c><c>   1</c></rc>
    <rc><c>C </c><c>   1</c></rc>
    <rc><c>C </c><c>   1</c></rc>
    <rc><c>C </c><c>   1</c></rc>
    <rc><c>C </c><c>   1</c></rc>
    <rc><c>C </c><c>   1</c></rc>
    <rc><c>C </c><c>   1</c></rc>
    <rc><c>C </c><c>   1</c></rc>
    <rc><c>C </c><c>   1</c></rc>
    <rc><c>C </c><c>   1</c></rc>
    <rc><c>C </c><c>   1</c></rc>
    <rc><c>C </c><c>   1</c></rc>
    <rc><c>C </c><c>   1</c></rc>
    <rc><c>C </c><c>   1</c></rc>
    <rc><c>C </c><c>   1</c></rc>
    <rc><c>C </c><c>   1</c></rc>
    <rc><c>C </c><c>   1</c></rc>
    <rc><c>C </c><c>   1</c></rc>
    <rc><c>C </c><c>   1</c></rc>
    <rc><c>C </c><c>   1</c></rc>
    <rc><c>C </c><c>   1</c></rc>
    <rc><c>C </c><c>   1</c></rc>
    <rc><c>C </c><c>   1</c></rc>
    <rc><c>C </c><c>   1</c></rc>
    <rc><c>C </c><c>   1</c></rc>
    <rc><c>C </c><c>   1</c></rc>
    <rc><c>C </c><c>   1</c></rc>
    <rc><c>C </c><c>   1</c></rc>
    <rc><c>C </c><c>   1</c></rc>
    <rc><c>O </c><c>   2</c></rc>
    <rc><c>O </c><c>   2</c></rc>
    <rc><c>O </c><c>   2</c></rc>
    <rc><c>O </c><c>   2</c></rc>
    <rc><c>O </c><c>   2</c></rc>
    <rc><c>O </c><c>   2</c></rc>
    <rc><c>O </c><c>   2</c></rc>
    <rc><c>O </c><c>   2</c></rc>
    <rc><c>O </c><c>   2</c></rc>
    <rc><c>O </c><c>   2</c></rc>
    <rc><c>O </c><c>   2</c></rc>
    <rc><c>O </c><c>   2</c></rc>
    <rc><c>O </c><c>   2</c></rc>
    <rc><c>O </c><c>   2</c></rc>
    <rc><c>O </c><c>   2</c></rc>
    <rc><c>O </c><c>   2</c></rc>
    <rc><c>N </c><c>   3</c></rc>
    <rc><c>N </c><c>   3</c></rc>
    <rc><c>N </c><c>   3</c></rc>
    <rc><c>N </c><c>   3</c></rc>
    <rc><c>N </c><c>   3</c></rc>
    <rc><c>N </c><c>   3</c></rc>
    <rc><c>N </c><c>   3</c></rc>
    <rc><c>N </c><c>   3</c></rc>
    <rc><c>N </c><c>   3</c></rc>
    <rc><c>N </c><c>   3</c></rc>
    <rc><c>N </c><c>   3</c></rc>
    <rc><c>N </c><c>   3</c></rc>
    <rc><c>H </c><c>   4</c></rc>
    <rc><c>H </c><c>   4</c></rc>
    <rc><c>H </c><c>   4</c></rc>
    <rc><c>H </c><c>   4</c></rc>
    <rc><c>H </c><c>   4</c></rc>
    <rc><c>H </c><c>   4</c></rc>
    <rc><c>H </c><c>   4</c></rc>
    <rc><c>H </c><c>   4</c></rc>
    <rc><c>H </c><c>   4</c></rc>
    <rc><c>H </c><c>   4</c></rc>
    <rc><c>H </c><c>   4</c></rc>
    <rc><c>H </c><c>   4</c></rc>
    <rc><c>H </c><c>   4</c></rc>
    <rc><c>H </c><c>   4</c></rc>
    <rc><c>H </c><c>   4</c></rc>
    <rc><c>H </c><c>   4</c></rc>
    <rc><c>H </c><c>   4</c></rc>
    <rc><c>H </c><c>   4</c></rc>
    <rc><c>H </c><c>   4</c></rc>
    <rc><c>H </c><c>   4</c></rc>
    <rc><c>H </c><c>   4</c></rc>
    <rc><c>H </c><c>   4</c></rc>
    <rc><c>H </c><c>   4</c></rc>
    <rc><c>H </c><c>   4</c></rc>
    <rc><c>H </c><c>   4</c></rc>
    <rc><c>H </c><c>   4</c></rc>
    <rc><c>H </c><c>   4</c></rc>
    <rc><c>H </c><c>   4</c></rc>
   </set>
  </array>
  <array name="atomtypes" >
   <dimension dim="1">type</dimension>
   <field type="int">atomspertype</field>
   <field type="string">element</field>
   <field>mass</field>
   <field>valence</field>
   <field type="string">pseudopotential</field>
   <set>
    <rc><c>  55</c><c>C </c><c>     12.01100000</c><c>      4.00000000</c><c>  PAW_PBE C 08Apr2002                   </c></rc>
    <rc><c>  16</c><c>O </c><c>     16.00000000</c><c>      6.00000000</c><c>  PAW_PBE O 08Apr2002                   </c></rc>
    <rc><c>  12</c><c>N </c><c>     14.00100000</c><c>      5.00000000</c><c>  PAW_PBE N 08Apr2002                   </c></rc>
    <rc><c>  28</c><c>H </c><c>      1.00000000</c><c>      1.00000000</c><c>  PAW_PBE H 15Jun2001                   </c></rc>
   </set>
  </array>
 </atominfo>
 <structure name="initialpos" >
  <crystal>
   <varray name="basis" >
    <v>      21.81601675       0.18730025       0.00000000 </v>
    <v>       0.18683946      21.81765091       0.00000000 </v>
    <v>       0.00000000       0.00000000      20.00000000 </v>
   </varray>
   <i name="volume">   9518.78485164 </i>
   <varray name="rec_basis" >
    <v>       0.04584125      -0.00039257       0.00000000 </v>
    <v>      -0.00039354       0.04583782       0.00000000 </v>
    <v>       0.00000000       0.00000000       0.05000000 </v>
   </varray>
  </crystal>
  <varray name="positions" >
   <v>       0.00007661       0.93960100       0.50934792 </v>
   <v>       0.99991141       0.93619040       0.57929313 </v>
   <v>       0.00560708       0.05212754       0.58749614 </v>
   <v>       0.00314844       0.05696379       0.51774187 </v>
   <v>       0.00772629       0.10573918       0.62672531 </v>
   <v>       0.00668281       0.16321099       0.59800124 </v>
   <v>       0.00342199       0.16883602       0.52775361 </v>
   <v>       0.99299101       0.82800124       0.50372220 </v>
   <v>       0.99105160       0.82541070       0.57418060 </v>
   <v>       0.99521267       0.87873648       0.61082234 </v>
   <v>       0.00546279       0.99164769       0.62297414 </v>
   <v>       0.99078475       0.44463018       0.54080601 </v>
   <v>       0.99297429       0.38313067       0.55849003 </v>
   <v>       0.41825293       0.01362599       0.52016696 </v>
   <v>       0.35625786       0.01082546       0.50455903 </v>
   <v>       0.05757210       0.00180622       0.42599433 </v>
   <v>       0.05412575       0.01037303       0.35669555 </v>
   <v>       0.93784744       0.01554087       0.36262343 </v>
   <v>       0.94000493       0.00625977       0.43186087 </v>
   <v>       0.88458396       0.00381803       0.46757080 </v>
   <v>       0.82802007       0.01236027       0.43583120 </v>
   <v>       0.82654240       0.02230970       0.36612478 </v>
   <v>       0.88070157       0.02322457       0.33059564 </v>
   <v>       0.10850732       0.01252800       0.31878422 </v>
   <v>       0.16534175       0.00677069       0.34848159 </v>
   <v>       0.16956815       0.99791305       0.41828098 </v>
   <v>       0.11563060       0.99520642       0.45590499 </v>
   <v>       0.00203985       0.11564342       0.48876086 </v>
   <v>       0.99794408       0.88490760       0.47227977 </v>
   <v>       0.00056154       0.00076364       0.47118584 </v>
   <v>       0.99442337       0.01776285       0.32027353 </v>
   <v>       0.00023157       0.22944613       0.49681029 </v>
   <v>       0.22986771       0.99240411       0.44985968 </v>
   <v>       0.99051511       0.77060309       0.46582709 </v>
   <v>       0.77031671       0.01140591       0.47316350 </v>
   <v>       0.99795111       0.33748633       0.50942144 </v>
   <v>       0.99886892       0.35614737       0.44205515 </v>
   <v>       0.99532208       0.41794363       0.42596181 </v>
   <v>       0.99211831       0.46502437       0.47413270 </v>
   <v>       0.98613299       0.53204493       0.46019826 </v>
   <v>       0.03659476       0.57091129       0.45379360 </v>
   <v>       0.03173561       0.63440947       0.45791854 </v>
   <v>       0.97484986       0.66263914       0.47223552 </v>
   <v>       0.92282093       0.62573482       0.47420103 </v>
   <v>       0.92894748       0.56269607       0.46657336 </v>
   <v>       0.33789439       0.99865009       0.43855520 </v>
   <v>       0.38375140       0.98817786       0.39049240 </v>
   <v>       0.44503650       0.98923466       0.40830514 </v>
   <v>       0.46534161       0.00371936       0.47311495 </v>
   <v>       0.53211520       0.01337099       0.48444333 </v>
   <v>       0.57411180       0.96495303       0.49624995 </v>
   <v>       0.63722320       0.97044392       0.48913104 </v>
   <v>       0.66187854       0.02653257       0.46898253 </v>
   <v>       0.62193367       0.07749645       0.46372602 </v>
   <v>       0.55933354       0.07047556       0.47164627 </v>
   <v>       0.95461080       0.47452943       0.64509597 </v>
   <v>       0.01896824       0.53529235       0.59387576 </v>
   <v>       0.39300252       0.02528443       0.63250552 </v>
   <v>       0.48798867       0.04227663       0.60232530 </v>
   <v>       0.82535963       0.55309243       0.49266716 </v>
   <v>       0.99826073       0.39141985       0.31312098 </v>
   <v>       0.10668282       0.48866782       0.45303613 </v>
   <v>       0.87234673       0.47519535       0.44410831 </v>
   <v>       0.99081414       0.48899914       0.33894758 </v>
   <v>       0.14098876       0.58075387       0.43298886 </v>
   <v>       0.54674588       0.17622406       0.47803480 </v>
   <v>       0.47937090       0.00419999       0.29986141 </v>
   <v>       0.49697760       0.89950730       0.53092589 </v>
   <v>       0.46733582       0.12271484       0.44681216 </v>
   <v>       0.53225705       0.94103093       0.36455840 </v>
   <v>       0.58812373       0.85957691       0.51060627 </v>
   <v>       0.98762543       0.48853685       0.59732347 </v>
   <v>       0.43421913       0.02821939       0.59010692 </v>
   <v>       0.87126272       0.52755673       0.46832802 </v>
   <v>       0.09933259       0.54484045       0.44611232 </v>
   <v>       0.99478625       0.43390877       0.35409630 </v>
   <v>       0.97044912       0.72242848       0.49450269 </v>
   <v>       0.00154071       0.27773312       0.53378445 </v>
   <v>       0.52143188       0.12739439       0.46487348 </v>
   <v>       0.55139795       0.90332933       0.51357452 </v>
   <v>       0.48927116       0.97759398       0.35352677 </v>
   <v>       0.72107199       0.03191031       0.44548635 </v>
   <v>       0.27825831       0.99991036       0.41425715 </v>
   <v>       0.98708201       0.78094908       0.59847273 </v>
   <v>       0.99502384       0.87679282       0.66540418 </v>
   <v>       0.00974856       0.10116361       0.68109064 </v>
   <v>       0.00774081       0.20473508       0.62818573 </v>
   <v>       0.88579988       0.99609688       0.52155969 </v>
   <v>       0.11872460       0.98843781       0.50997514 </v>
   <v>       0.04775464       0.98688462       0.65313021 </v>
   <v>       0.96808738       0.99198064       0.66022665 </v>
   <v>       0.23108414       0.98133486       0.50385340 </v>
   <v>       0.77128920       0.99303885       0.52471832 </v>
   <v>       0.99123416       0.36992530       0.61093006 </v>
   <v>       0.32316872       0.02022350       0.54415433 </v>
   <v>       0.99956045       0.11997001       0.43437141 </v>
   <v>       0.99915410       0.88710927       0.41768706 </v>
   <v>       0.78234123       0.02879705       0.34152619 </v>
   <v>       0.87973482       0.03020368       0.27651203 </v>
   <v>       0.10506747       0.01912816       0.26474962 </v>
   <v>       0.20745966       0.00883035       0.31938449 </v>
   <v>       0.99442906       0.06144445       0.29231167 </v>
   <v>       0.99172485       0.98222098       0.28106113 </v>
   <v>       0.00675664       0.77067320       0.41344110 </v>
   <v>       0.99585902       0.23060747       0.44170302 </v>
   <v>       0.07340612       0.66104294       0.45531213 </v>
   <v>       0.87762929       0.64570316       0.48392226 </v>
   <v>       0.00205361       0.32351480       0.40097477 </v>
   <v>       0.66604529       0.92951938       0.49461324 </v>
   <v>       0.63958814       0.12239843       0.45108974 </v>
   <v>       0.37078913       0.98020651       0.33868370 </v>
  </varray>
 </structure>
 <calculation>
  <scstep>
   <time name="dav">  379.25  382.96</time>
   <time name="total">  379.41  383.14</time>
   <energy>
    <i name="alphaZ">     77.53654643 </i>
    <i name="ewald">  49462.31334320 </i>
    <i name="hartreedc"> -64790.34875592 </i>
    <i name="XCdc">   1524.51366902 </i>
    <i name="pawpsdc">  37031.72137680 </i>
    <i name="pawaedc"> -37116.89762502 </i>
    <i name="eentropy">     -0.00000000 </i>
    <i name="bandstr">  -5501.87217619 </i>
    <i name="atom">  18534.90437559 </i>
    <i name="e_fr_energy">   -778.12924609 </i>
    <i name="e_wo_entrp">   -778.12924609 </i>
    <i name="e_0_energy">   -778.12924609 </i>
   </energy>
  </scstep>
  <scstep>
   <time name="dav">  422.21  426.51</time>
   <time name="total">  422.23  426.53</time>
   <energy>
    <i name="e_fr_energy">   -779.64562899 </i>
    <i name="e_wo_entrp">   -779.64562899 </i>
    <i name="e_0_energy">   -779.64562899 </i>
   </energy>
  </scstep>
  <scstep>
   <time name="dav">  465.88  469.78</time>
   <time name="total">  465.91  469.81</time>
   <energy>
    <i name="e_fr_energy">   -779.68685992 </i>
    <i name="e_wo_entrp">   -779.68685992 </i>
    <i name="e_0_energy">   -779.68685992 </i>
   </energy>
  </scstep>
  <scstep>
   <time name="dav">  424.63  428.01</time>
   <time name="total">  424.65  428.03</time>
   <energy>
    <i name="e_fr_energy">   -779.68775589 </i>
    <i name="e_wo_entrp">   -779.68775589 </i>
    <i name="e_0_energy">   -779.68775589 </i>
   </energy>
  </scstep>
  <scstep>
   <time name="dav">  417.31  420.68</time>
   <time name="total">  417.34  420.71</time>
   <energy>
    <i name="e_fr_energy">   -779.68780147 </i>
    <i name="e_wo_entrp">   -779.68780147 </i>
    <i name="e_0_energy">   -779.68780147 </i>
   </energy>
  </scstep>
  <scstep>
   <time name="dav">  348.29  351.00</time>
   <time name="total">  348.31  351.02</time>
   <energy>
    <i name="alphaZ">     77.53654643 </i>
    <i name="ewald">  49462.31334320 </i>
    <i name="hartreedc"> -64790.34875592 </i>
    <i name="XCdc">   1524.51366902 </i>
    <i name="pawpsdc">  37031.72137680 </i>
    <i name="pawaedc"> -37116.89762502 </i>
    <i name="eentropy">     -0.00000000 </i>
    <i name="bandstr">  -5503.43073371 </i>
    <i name="atom">  18534.90437559 </i>
    <i name="e_fr_energy">   -779.68780361 </i>
    <i name="e_wo_entrp">   -779.68780361 </i>
    <i name="e_0_energy">   -779.68780361 </i>
   </energy>
  </scstep>
  <structure>
   <crystal>
    <varray name="basis" >
     <v>      21.81601675       0.18730025       0.00000000 </v>
     <v>       0.18683946      21.81765091       0.00000000 </v>
     <v>       0.00000000       0.00000000      20.00000000 </v>
    </varray>
    <i name="volume">   9518.78485164 </i>
    <varray name="rec_basis" >
     <v>       0.04584125      -0.00039257       0.00000000 </v>
     <v>      -0.00039354       0.04583782       0.00000000 </v>
     <v>       0.00000000       0.00000000       0.05000000 </v>
    </varray>
   </crystal>
   <varray name="positions" >
    <v>       0.00007661       0.93960100       0.50934792 </v>
    <v>       0.99991141       0.93619040       0.57929313 </v>
    <v>       0.00560708       0.05212754       0.58749614 </v>
    <v>       0.00314844       0.05696379       0.51774187 </v>
    <v>       0.00772629       0.10573918       0.62672531 </v>
    <v>       0.00668281       0.16321099       0.59800124 </v>
    <v>       0.00342199       0.16883602       0.52775361 </v>
    <v>       0.99299101       0.82800124       0.50372220 </v>
    <v>       0.99105160       0.82541070       0.57418060 </v>
    <v>       0.99521267       0.87873648       0.61082234 </v>
    <v>       0.00546279       0.99164769       0.62297414 </v>
    <v>       0.99078475       0.44463018       0.54080601 </v>
    <v>       0.99297429       0.38313067       0.55849003 </v>
    <v>       0.41825293       0.01362599       0.52016696 </v>
    <v>       0.35625786       0.01082546       0.50455903 </v>
    <v>       0.05757210       0.00180622       0.42599433 </v>
    <v>       0.05412575       0.01037303       0.35669555 </v>
    <v>       0.93784744       0.01554087       0.36262343 </v>
    <v>       0.94000493       0.00625977       0.43186087 </v>
    <v>       0.88458396       0.00381803       0.46757080 </v>
    <v>       0.82802007       0.01236027       0.43583120 </v>
    <v>       0.82654240       0.02230970       0.36612478 </v>
    <v>       0.88070157       0.02322457       0.33059564 </v>
    <v>       0.10850732       0.01252800       0.31878422 </v>
    <v>       0.16534175       0.00677069       0.34848159 </v>
    <v>       0.16956815       0.99791305       0.41828098 </v>
    <v>       0.11563060       0.99520642       0.45590499 </v>
    <v>       0.00203985       0.11564342       0.48876086 </v>
    <v>       0.99794408       0.88490760       0.47227977 </v>
    <v>       0.00056154       0.00076364       0.47118584 </v>
    <v>       0.99442337       0.01776285       0.32027353 </v>
    <v>       0.00023157       0.22944613       0.49681029 </v>
    <v>       0.22986771       0.99240411       0.44985968 </v>
    <v>       0.99051511       0.77060309       0.46582709 </v>
    <v>       0.77031671       0.01140591       0.47316350 </v>
    <v>       0.99795111       0.33748633       0.50942144 </v>
    <v>       0.99886892       0.35614737       0.44205515 </v>
    <v>       0.99532208       0.41794363       0.42596181 </v>
    <v>       0.99211831       0.46502437       0.47413270 </v>
    <v>       0.98613299       0.53204493       0.46019826 </v>
    <v>       0.03659476       0.57091129       0.45379360 </v>
    <v>       0.03173561       0.63440947       0.45791854 </v>
    <v>       0.97484986       0.66263914       0.47223552 </v>
    <v>       0.92282093       0.62573482       0.47420103 </v>
    <v>       0.92894748       0.56269607       0.46657336 </v>
    <v>       0.33789439       0.99865009       0.43855520 </v>
    <v>       0.38375140       0.98817786       0.39049240 </v>
    <v>       0.44503650       0.98923466       0.40830514 </v>
    <v>       0.46534161       0.00371936       0.47311495 </v>
    <v>       0.53211520       0.01337099       0.48444333 </v>
    <v>       0.57411180       0.96495303       0.49624995 </v>
    <v>       0.63722320       0.97044392       0.48913104 </v>
    <v>       0.66187854       0.02653257       0.46898253 </v>
    <v>       0.62193367       0.07749645       0.46372602 </v>
    <v>       0.55933354       0.07047556       0.47164627 </v>
    <v>       0.95461080       0.47452943       0.64509597 </v>
    <v>       0.01896824       0.53529235       0.59387576 </v>
    <v>       0.39300252       0.02528443       0.63250552 </v>
    <v>       0.48798867       0.04227663       0.60232530 </v>
    <v>       0.82535963       0.55309243       0.49266716 </v>
    <v>       0.99826073       0.39141985       0.31312098 </v>
    <v>       0.10668282       0.48866782       0.45303613 </v>
    <v>       0.87234673       0.47519535       0.44410831 </v>
    <v>       0.99081414       0.48899914       0.33894758 </v>
    <v>       0.14098876       0.58075387       0.43298886 </v>
    <v>       0.54674588       0.17622406       0.47803480 </v>
    <v>       0.47937090       0.00419999       0.29986141 </v>
    <v>       0.49697760       0.89950730       0.53092589 </v>
    <v>       0.46733582       0.12271484       0.44681216 </v>
    <v>       0.53225705       0.94103093       0.36455840 </v>
    <v>       0.58812373       0.85957691       0.51060627 </v>
    <v>       0.98762543       0.48853685       0.59732347 </v>
    <v>       0.43421913       0.02821939       0.59010692 </v>
    <v>       0.87126272       0.52755673       0.46832802 </v>
    <v>       0.09933259       0.54484045       0.44611232 </v>
    <v>       0.99478625       0.43390877       0.35409630 </v>
    <v>       0.97044912       0.72242848       0.49450269 </v>
    <v>       0.00154071       0.27773312       0.53378445 </v>
    <v>       0.52143188       0.12739439       0.46487348 </v>
    <v>       0.55139795       0.90332933       0.51357452 </v>
    <v>       0.48927116       0.97759398       0.35352677 </v>
    <v>       0.72107199       0.03191031       0.44548635 </v>
    <v>       0.27825831       0.99991036       0.41425715 </v>
    <v>       0.98708201       0.78094908       0.59847273 </v>
    <v>       0.99502384       0.87679282       0.66540418 </v>
    <v>       0.00974856       0.10116361       0.68109064 </v>
    <v>       0.00774081       0.20473508       0.62818573 </v>
    <v>       0.88579988       0.99609688       0.52155969 </v>
    <v>       0.11872460       0.98843781       0.50997514 </v>
    <v>       0.04775464       0.98688462       0.65313021 </v>
    <v>       0.96808738       0.99198064       0.66022665 </v>
    <v>       0.23108414       0.98133486       0.50385340 </v>
    <v>       0.77128920       0.99303885       0.52471832 </v>
    <v>       0.99123416       0.36992530       0.61093006 </v>
    <v>       0.32316872       0.02022350       0.54415433 </v>
    <v>       0.99956045       0.11997001       0.43437141 </v>
    <v>       0.99915410       0.88710927       0.41768706 </v>
    <v>       0.78234123       0.02879705       0.34152619 </v>
    <v>       0.87973482       0.03020368       0.27651203 </v>
    <v>       0.10506747       0.01912816       0.26474962 </v>
    <v>       0.20745966       0.00883035       0.31938449 </v>
    <v>       0.99442906       0.06144445       0.29231167 </v>
    <v>       0.99172485       0.98222098       0.28106113 </v>
    <v>       0.00675664       0.77067320       0.41344110 </v>
    <v>       0.99585902       0.23060747       0.44170302 </v>
    <v>       0.07340612       0.66104294       0.45531213 </v>
    <v>       0.87762929       0.64570316       0.48392226 </v>
    <v>       0.00205361       0.32351480       0.40097477 </v>
    <v>       0.66604529       0.92951938       0.49461324 </v>
    <v>       0.63958814       0.12239843       0.45108974 </v>
    <v>       0.37078913       0.98020651       0.33868370 </v>
   </varray>
  </structure>
  <varray name="forces" >
   <v>      -0.00055062       0.00108920       0.00135114 </v>
   <v>      -0.00052178       0.00014147      -0.00311901 </v>
   <v>      -0.00000438       0.00091139      -0.00255648 </v>
   <v>      -0.00101485      -0.00075541       0.00106545 </v>
   <v>       0.00134498      -0.00166468      -0.00000002 </v>
   <v>       0.00036021       0.00079536      -0.00008367 </v>
   <v>       0.00027552      -0.00221845      -0.00100831 </v>
   <v>      -0.00160284       0.00243981      -0.00054405 </v>
   <v>      -0.00104150       0.00024309      -0.00027430 </v>
   <v>      -0.00042131       0.00002438      -0.00022741 </v>
   <v>       0.00215193      -0.00028461       0.00475327 </v>
   <v>       0.00297793      -0.00019959      -0.00000705 </v>
   <v>       0.00090363      -0.00004546       0.00116205 </v>
   <v>      -0.00123359       0.00231351      -0.00010280 </v>
   <v>      -0.00031692      -0.00139522       0.00011890 </v>
   <v>      -0.00041314      -0.00079204       0.00010442 </v>
   <v>      -0.00091081      -0.00040691       0.00034172 </v>
   <v>       0.00044635       0.00099062      -0.00030658 </v>
   <v>       0.00062387       0.00108105       0.00003848 </v>
   <v>      -0.00035935       0.00138502      -0.00004826 </v>
   <v>      -0.00088562       0.00095385      -0.00094111 </v>
   <v>      -0.00019272       0.00190754       0.00063652 </v>
   <v>       0.00141269       0.00169146      -0.00004373 </v>
   <v>      -0.00031982      -0.00021466       0.00014285 </v>
   <v>       0.00044764      -0.00070711       0.00053516 </v>
   <v>      -0.00012266      -0.00103081       0.00141088 </v>
   <v>      -0.00111130      -0.00027490       0.00006486 </v>
   <v>      -0.00096720      -0.00025361       0.00044235 </v>
   <v>      -0.00172166       0.00023335      -0.00002991 </v>
   <v>      -0.00031103       0.00001812       0.00090289 </v>
   <v>      -0.00020332      -0.00060994       0.00104994 </v>
   <v>       0.00134286       0.00259727       0.00281901 </v>
   <v>       0.00241967      -0.00030563      -0.00156136 </v>
   <v>      -0.00078914      -0.00037672      -0.00128707 </v>
   <v>       0.00091881      -0.00025072       0.00055380 </v>
   <v>       0.00109412       0.00086290       0.00037999 </v>
   <v>       0.00024030      -0.00136918       0.00140951 </v>
   <v>      -0.00529819       0.00051744      -0.00039586 </v>
   <v>      -0.00085334      -0.00152734       0.00128153 </v>
   <v>      -0.00178542       0.00150434      -0.00060201 </v>
   <v>      -0.00124521      -0.00126218       0.00165072 </v>
   <v>      -0.00132873       0.00147520       0.00072971 </v>
   <v>      -0.00032844      -0.00182063      -0.00162444 </v>
   <v>       0.00054547       0.00156715      -0.00036852 </v>
   <v>      -0.00044321      -0.00245251      -0.00358231 </v>
   <v>       0.00032212      -0.00134996       0.00091378 </v>
   <v>      -0.00113465      -0.00084091       0.00025228 </v>
   <v>       0.00046580      -0.00193418       0.00059388 </v>
   <v>       0.00114207       0.00070123      -0.00017360 </v>
   <v>      -0.00092640       0.00070464       0.00001304 </v>
   <v>      -0.00050613      -0.00081326      -0.00202953 </v>
   <v>       0.00045562       0.00122746      -0.00077510 </v>
   <v>      -0.00096487       0.00085847       0.00076896 </v>
   <v>       0.00136973      -0.00052267       0.00002366 </v>
   <v>      -0.00018707       0.00146025       0.00160005 </v>
   <v>      -0.00086188      -0.00052737      -0.00474229 </v>
   <v>       0.00044828      -0.00063549      -0.00201222 </v>
   <v>       0.00313655       0.00164483       0.00071761 </v>
   <v>       0.00115774       0.00099791      -0.00016116 </v>
   <v>       0.00725793      -0.00090867      -0.00176771 </v>
   <v>       0.00227746       0.00020609       0.00193840 </v>
   <v>      -0.00417575       0.00071024      -0.00153759 </v>
   <v>       0.00256539      -0.00632911       0.00008883 </v>
   <v>       0.00061047      -0.00131797      -0.00020138 </v>
   <v>      -0.00146685      -0.00062893       0.00026238 </v>
   <v>       0.00037214       0.00285980       0.00100562 </v>
   <v>       0.00094792      -0.00147963       0.00058134 </v>
   <v>       0.00185484      -0.00206650       0.00124967 </v>
   <v>       0.00339702      -0.00097089       0.00214918 </v>
   <v>       0.00089167      -0.00122524       0.00106760 </v>
   <v>       0.00101686       0.00131987      -0.00233228 </v>
   <v>      -0.00131611      -0.00027835       0.00162922 </v>
   <v>       0.00185658      -0.00026907      -0.00042446 </v>
   <v>      -0.00524330       0.00699765       0.00521027 </v>
   <v>      -0.00129254       0.00500265      -0.00145934 </v>
   <v>      -0.00068075       0.00176560      -0.00312465 </v>
   <v>       0.00113715       0.00107493       0.00059051 </v>
   <v>       0.00279927      -0.00313236       0.00015513 </v>
   <v>      -0.00563204      -0.00284636      -0.00229732 </v>
   <v>       0.00089027      -0.00232404      -0.00012615 </v>
   <v>      -0.00062798       0.00125647      -0.00371833 </v>
   <v>      -0.00005875      -0.00004720      -0.00125554 </v>
   <v>      -0.00406295      -0.00148312       0.00137756 </v>
   <v>      -0.00145961       0.00005449      -0.00015843 </v>
   <v>      -0.00019841       0.00045282      -0.00058593 </v>
   <v>       0.00142464       0.00119631       0.00021064 </v>
   <v>       0.00074460       0.00056680      -0.00026702 </v>
   <v>       0.00013478       0.00024401      -0.00016010 </v>
   <v>      -0.00063334       0.00005803       0.00003327 </v>
   <v>       0.00103615       0.00042063      -0.00025662 </v>
   <v>       0.00246998       0.00018553       0.00029796 </v>
   <v>      -0.00057599      -0.00025325       0.00101652 </v>
   <v>       0.00011020       0.00044808       0.00032498 </v>
   <v>      -0.00278600      -0.00135080       0.00054020 </v>
   <v>      -0.00135239      -0.00138407       0.00110914 </v>
   <v>      -0.00088617      -0.00128857      -0.00003471 </v>
   <v>      -0.00065900       0.00077798       0.00050904 </v>
   <v>      -0.00016839       0.00097965      -0.00010355 </v>
   <v>       0.00192562       0.00118844      -0.00051418 </v>
   <v>      -0.00045497      -0.00009119       0.00023881 </v>
   <v>       0.00051540      -0.00191304       0.00006251 </v>
   <v>      -0.00055781      -0.00089253      -0.00021762 </v>
   <v>       0.00017550      -0.00023319       0.00011722 </v>
   <v>      -0.00010007       0.00131401      -0.00133253 </v>
   <v>      -0.00090209      -0.00079804       0.00160978 </v>
   <v>      -0.00085905       0.00101573      -0.00084933 </v>
   <v>       0.00038483      -0.00082021      -0.00169779 </v>
   <v>       0.00370948       0.00045156       0.00095702 </v>
   <v>       0.00034693      -0.00029476       0.00015987 </v>
   <v>      -0.00002608      -0.00073201      -0.00047470 </v>
   <v>       0.00019855      -0.00068445       0.00118436 </v>
  </varray>
  <varray name="stress" >
   <v>      -0.01978280       0.01596137      -0.00340624 </v>
   <v>       0.01596137      -0.01679937       0.00853468 </v>
   <v>      -0.00340623       0.00853468      -0.28605691 </v>
  </varray>
  <energy>
   <i name="e_fr_energy">   -782.50862437 </i>
   <i name="e_wo_entrp">   -782.50862437 </i>
   <i name="e_0_energy">     -0.00000000 </i>
  </energy>
  <time name="totalsc"> 2740.99 2765.65</time>
  <eigenvalues>
   <array>
    <dimension dim="1">band</dimension>
    <dimension dim="2">kpoint</dimension>
    <dimension dim="3">spin</dimension>
    <field>eigene</field>
    <field>occ</field>
    <set>
     <set comment="spin 1">
      <set comment="kpoint 1">
       <r>  -30.6832    1.0000 </r>
       <r>  -30.6814    1.0000 </r>
       <r>  -30.6348    1.0000 </r>
       <r>  -30.6101    1.0000 </r>
       <r>  -30.5908    1.0000 </r>
       <r>  -30.5747    1.0000 </r>
       <r>  -30.5698    1.0000 </r>
       <r>  -30.5416    1.0000 </r>
       <r>  -26.2999    1.0000 </r>
       <r>  -26.2976    1.0000 </r>
       <r>  -26.2475    1.0000 </r>
       <r>  -26.2193    1.0000 </r>
       <r>  -26.1897    1.0000 </r>
       <r>  -26.1830    1.0000 </r>
       <r>  -26.1652    1.0000 </r>
       <r>  -26.1482    1.0000 </r>
       <r>  -23.8439    1.0000 </r>
       <r>  -23.8065    1.0000 </r>
       <r>  -23.6265    1.0000 </r>
       <r>  -23.5680    1.0000 </r>
       <r>  -22.6844    1.0000 </r>
       <r>  -22.6630    1.0000 </r>
       <r>  -22.5187    1.0000 </r>
       <r>  -22.0861    1.0000 </r>
       <r>  -22.0825    1.0000 </r>
       <r>  -21.8070    1.0000 </r>
       <r>  -21.4782    1.0000 </r>
       <r>  -21.4755    1.0000 </r>
       <r>  -20.5766    1.0000 </r>
       <r>  -20.5287    1.0000 </r>
       <r>  -20.5183    1.0000 </r>
       <r>  -20.4757    1.0000 </r>
       <r>  -20.4737    1.0000 </r>
       <r>  -20.4179    1.0000 </r>
       <r>  -20.1289    1.0000 </r>
       <r>  -19.7117    1.0000 </r>
       <r>  -19.6938    1.0000 </r>
       <r>  -19.6144    1.0000 </r>
       <r>  -19.6088    1.0000 </r>
       <r>  -18.8105    1.0000 </r>
       <r>  -18.8057    1.0000 </r>
       <r>  -18.5642    1.0000 </r>
       <r>  -18.5581    1.0000 </r>
       <r>  -18.5102    1.0000 </r>
       <r>  -18.2525    1.0000 </r>
       <r>  -18.2405    1.0000 </r>
       <r>  -17.8950    1.0000 </r>
       <r>  -17.6530    1.0000 </r>
       <r>  -17.3473    1.0000 </r>
       <r>  -17.3432    1.0000 </r>
       <r>  -17.2929    1.0000 </r>
       <r>  -17.2724    1.0000 </r>
       <r>  -17.2475    1.0000 </r>
       <r>  -17.2447    1.0000 </r>
       <r>  -16.9565    1.0000 </r>
       <r>  -16.3737    1.0000 </r>
       <r>  -16.3244    1.0000 </r>
       <r>  -16.2838    1.0000 </r>
       <r>  -15.8846    1.0000 </r>
       <r>  -15.5745    1.0000 </r>
       <r>  -15.2626    1.0000 </r>
       <r>  -15.2531    1.0000 </r>
       <r>  -14.9641    1.0000 </r>
       <r>  -14.7757    1.0000 </r>
       <r>  -14.7676    1.0000 </r>
       <r>  -14.6335    1.0000 </r>
       <r>  -14.5818    1.0000 </r>
       <r>  -14.4506    1.0000 </r>
       <r>  -14.4409    1.0000 </r>
       <r>  -14.3822    1.0000 </r>
       <r>  -14.3791    1.0000 </r>
       <r>  -14.0112    1.0000 </r>
       <r>  -14.0095    1.0000 </r>
       <r>  -13.8677    1.0000 </r>
       <r>  -13.8472    1.0000 </r>
       <r>  -13.5042    1.0000 </r>
       <r>  -13.3475    1.0000 </r>
       <r>  -13.3246    1.0000 </r>
       <r>  -13.2361    1.0000 </r>
       <r>  -13.2103    1.0000 </r>
       <r>  -13.1552    1.0000 </r>
       <r>  -13.0698    1.0000 </r>
       <r>  -13.0478    1.0000 </r>
       <r>  -12.9954    1.0000 </r>
       <r>  -12.9552    1.0000 </r>
       <r>  -12.9467    1.0000 </r>
       <r>  -12.9421    1.0000 </r>
       <r>  -12.9097    1.0000 </r>
       <r>  -12.8492    1.0000 </r>
       <r>  -12.8397    1.0000 </r>
       <r>  -12.7520    1.0000 </r>
       <r>  -12.7394    1.0000 </r>
       <r>  -12.6849    1.0000 </r>
       <r>  -12.6679    1.0000 </r>
       <r>  -12.6454    1.0000 </r>
       <r>  -12.6375    1.0000 </r>
       <r>  -12.6039    1.0000 </r>
       <r>  -12.5722    1.0000 </r>
       <r>  -12.5248    1.0000 </r>
       <r>  -12.4238    1.0000 </r>
       <r>  -12.4036    1.0000 </r>
       <r>  -12.2952    1.0000 </r>
       <r>  -12.2850    1.0000 </r>
       <r>  -12.1709    1.0000 </r>
       <r>  -12.1574    1.0000 </r>
       <r>  -12.1266    1.0000 </r>
       <r>  -12.1095    1.0000 </r>
       <r>  -12.0804    1.0000 </r>
       <r>  -12.0271    1.0000 </r>
       <r>  -11.7520    1.0000 </r>
       <r>  -11.7136    1.0000 </r>
       <r>  -11.6514    1.0000 </r>
       <r>  -11.6270    1.0000 </r>
       <r>  -11.3697    1.0000 </r>
       <r>  -11.3469    1.0000 </r>
       <r>  -11.3314    1.0000 </r>
       <r>  -11.3053    1.0000 </r>
       <r>  -11.1845    1.0000 </r>
       <r>  -11.1698    1.0000 </r>
       <r>  -11.1338    1.0000 </r>
       <r>  -11.0020    1.0000 </r>
       <r>  -10.9608    1.0000 </r>
       <r>  -10.8069    1.0000 </r>
       <r>  -10.7943    1.0000 </r>
       <r>  -10.6562    1.0000 </r>
       <r>  -10.4049    1.0000 </r>
       <r>  -10.3910    1.0000 </r>
       <r>  -10.2892    1.0000 </r>
       <r>  -10.2559    1.0000 </r>
       <r>  -10.1638    1.0000 </r>
       <r>  -10.1196    1.0000 </r>
       <r>   -9.9755    1.0000 </r>
       <r>   -9.8733    1.0000 </r>
       <r>   -9.8347    1.0000 </r>
       <r>   -9.8244    1.0000 </r>
       <r>   -9.8082    1.0000 </r>
       <r>   -9.7773    1.0000 </r>
       <r>   -9.7283    1.0000 </r>
       <r>   -9.6906    1.0000 </r>
       <r>   -9.6428    1.0000 </r>
       <r>   -9.6061    1.0000 </r>
       <r>   -9.5031    1.0000 </r>
       <r>   -9.4539    1.0000 </r>
       <r>   -9.3591    1.0000 </r>
       <r>   -9.3020    1.0000 </r>
       <r>   -9.2754    1.0000 </r>
       <r>   -9.1698    1.0000 </r>
       <r>   -9.1556    1.0000 </r>
       <r>   -8.7238    1.0000 </r>
       <r>   -8.6271    1.0000 </r>
       <r>   -8.6077    1.0000 </r>
       <r>   -8.5421    1.0000 </r>
       <r>   -8.5043    1.0000 </r>
       <r>   -8.4469    1.0000 </r>
       <r>   -8.3755    1.0000 </r>
       <r>   -8.0781    1.0000 </r>
       <r>   -8.0577    1.0000 </r>
       <r>   -7.8168    1.0000 </r>
       <r>   -7.7065    1.0000 </r>
       <r>   -7.6961    1.0000 </r>
       <r>   -7.5935    1.0000 </r>
       <r>   -7.5684    1.0000 </r>
       <r>   -7.5405    1.0000 </r>
       <r>   -7.5092    1.0000 </r>
       <r>   -7.4835    1.0000 </r>
       <r>   -7.4708    1.0000 </r>
       <r>   -7.4432    1.0000 </r>
       <r>   -7.4394    1.0000 </r>
       <r>   -7.3729    1.0000 </r>
       <r>   -7.3498    1.0000 </r>
       <r>   -7.2991    1.0000 </r>
       <r>   -7.2373    1.0000 </r>
       <r>   -7.2305    1.0000 </r>
       <r>   -7.2064    1.0000 </r>
       <r>   -7.1734    1.0000 </r>
       <r>   -7.1319    1.0000 </r>
       <r>   -7.0543    1.0000 </r>
       <r>   -7.0332    1.0000 </r>
       <r>   -6.9750    1.0000 </r>
       <r>   -6.9022    1.0000 </r>
       <r>   -6.8732    1.0000 </r>
       <r>   -6.8258    1.0000 </r>
       <r>   -6.8058    1.0000 </r>
       <r>   -6.5609    1.0000 </r>
       <r>   -6.5397    1.0000 </r>
       <r>   -6.5321    1.0000 </r>
       <r>   -6.4853    1.0000 </r>
       <r>   -6.4638    1.0000 </r>
       <r>   -6.4334    1.0000 </r>
       <r>   -6.4034    1.0000 </r>
       <r>   -6.3752    1.0000 </r>
       <r>   -6.3580    1.0000 </r>
       <r>   -6.3390    1.0000 </r>
       <r>   -6.1828    1.0000 </r>
       <r>   -6.1290    1.0000 </r>
       <r>   -6.0547    1.0000 </r>
       <r>   -6.0278    1.0000 </r>
       <r>   -5.9590    1.0000 </r>
       <r>   -5.6797    1.0000 </r>
       <r>   -5.6510    1.0000 </r>
       <r>   -5.5564    1.0000 </r>
       <r>   -5.5446    1.0000 </r>
       <r>   -3.4380    0.0000 </r>
       <r>   -3.3982    0.0000 </r>
       <r>   -3.3674    0.0000 </r>
       <r>   -3.3402    0.0000 </r>
       <r>   -3.2532    0.0000 </r>
       <r>   -3.2215    0.0000 </r>
       <r>   -3.1900    0.0000 </r>
       <r>   -3.1812    0.0000 </r>
       <r>   -2.9112    0.0000 </r>
       <r>   -2.8208    0.0000 </r>
       <r>   -2.7725    0.0000 </r>
       <r>   -2.7130    0.0000 </r>
       <r>   -1.7106    0.0000 </r>
       <r>   -1.6948    0.0000 </r>
       <r>   -1.5287    0.0000 </r>
       <r>   -1.3513    0.0000 </r>
       <r>   -1.2851    0.0000 </r>
       <r>   -1.2525    0.0000 </r>
       <r>   -1.1839    0.0000 </r>
       <r>   -1.1215    0.0000 </r>
       <r>   -1.0974    0.0000 </r>
       <r>   -1.0204    0.0000 </r>
       <r>   -0.8170    0.0000 </r>
       <r>   -0.7715    0.0000 </r>
       <r>   -0.5050    0.0000 </r>
       <r>   -0.4867    0.0000 </r>
       <r>   -0.4166    0.0000 </r>
       <r>   -0.3087    0.0000 </r>
       <r>   -0.1740    0.0000 </r>
       <r>   -0.0106    0.0000 </r>
       <r>    0.0318    0.0000 </r>
       <r>    0.1125    0.0000 </r>
       <r>    0.1812    0.0000 </r>
       <r>    0.2035    0.0000 </r>
       <r>    0.2270    0.0000 </r>
       <r>    0.2336    0.0000 </r>
       <r>    0.2937    0.0000 </r>
       <r>    0.4810    0.0000 </r>
       <r>    0.5699    0.0000 </r>
       <r>    0.5820    0.0000 </r>
       <r>    0.5841    0.0000 </r>
       <r>    0.5902    0.0000 </r>
       <r>    0.6331    0.0000 </r>
       <r>    0.6573    0.0000 </r>
       <r>    0.7148    0.0000 </r>
       <r>    0.8497    0.0000 </r>
       <r>    0.8632    0.0000 </r>
       <r>    0.9671    0.0000 </r>
       <r>    0.9861    0.0000 </r>
       <r>    0.9961    0.0000 </r>
       <r>    1.0382    0.0000 </r>
       <r>    1.1026    0.0000 </r>
       <r>    1.1414    0.0000 </r>
       <r>    1.1493    0.0000 </r>
       <r>    1.1736    0.0000 </r>
       <r>    1.2051    0.0000 </r>
       <r>    1.2226    0.0000 </r>
       <r>    1.2347    0.0000 </r>
       <r>    1.2550    0.0000 </r>
       <r>    1.2883    0.0000 </r>
       <r>    1.3036    0.0000 </r>
       <r>    1.3120    0.0000 </r>
       <r>    1.3382    0.0000 </r>
       <r>    1.3539    0.0000 </r>
       <r>    1.3830    0.0000 </r>
       <r>    1.3931    0.0000 </r>
       <r>    1.4027    0.0000 </r>
       <r>    1.4182    0.0000 </r>
       <r>    1.4838    0.0000 </r>
       <r>    1.5101    0.0000 </r>
      </set>
      <set comment="kpoint 2">
       <r>  -30.6832    1.0000 </r>
       <r>  -30.6814    1.0000 </r>
       <r>  -30.6348    1.0000 </r>
       <r>  -30.6101    1.0000 </r>
       <r>  -30.5908    1.0000 </r>
       <r>  -30.5747    1.0000 </r>
       <r>  -30.5698    1.0000 </r>
       <r>  -30.5416    1.0000 </r>
       <r>  -26.2999    1.0000 </r>
       <r>  -26.2976    1.0000 </r>
       <r>  -26.2475    1.0000 </r>
       <r>  -26.2193    1.0000 </r>
       <r>  -26.1897    1.0000 </r>
       <r>  -26.1830    1.0000 </r>
       <r>  -26.1652    1.0000 </r>
       <r>  -26.1482    1.0000 </r>
       <r>  -23.8439    1.0000 </r>
       <r>  -23.8065    1.0000 </r>
       <r>  -23.6265    1.0000 </r>
       <r>  -23.5680    1.0000 </r>
       <r>  -22.6844    1.0000 </r>
       <r>  -22.6630    1.0000 </r>
       <r>  -22.5188    1.0000 </r>
       <r>  -22.0862    1.0000 </r>
[...]
       <r>   -26.3774     0.0000    16.0000 </r>
       <r>   -26.2590    34.6805    20.1065 </r>
       <r>   -26.1405    82.0981    31.7212 </r>
       <r>   -26.0221     0.0000    32.0000 </r>
       <r>   -25.9037     0.0000    32.0000 </r>
       <r>   -25.7853     0.0000    32.0000 </r>
       <r>   -25.6669     0.0000    32.0000 </r>
       <r>   -25.5485     0.0000    32.0000 </r>
       <r>   -25.4301     0.0000    32.0000 </r>
       <r>   -25.3117     0.0000    32.0000 </r>
       <r>   -25.1933     0.0000    32.0000 </r>
       <r>   -25.0749     0.0000    32.0000 </r>
       <r>   -24.9564     0.0000    32.0000 </r>
       <r>   -24.8380     0.0000    32.0000 </r>
       <r>   -24.7196     0.0000    32.0000 </r>
       <r>   -24.6012     0.0000    32.0000 </r>
       <r>   -24.4828     0.0000    32.0000 </r>
       <r>   -24.3644     0.0000    32.0000 </r>
       <r>   -24.2460     0.0000    32.0000 </r>
       <r>   -24.1276     0.0000    32.0000 </r>
       <r>   -24.0092     0.0000    32.0000 </r>
       <r>   -23.8908     0.0000    32.0000 </r>
       <r>   -23.7724    33.7811    36.0000 </r>
       <r>   -23.6539     0.0009    36.0001 </r>
       <r>   -23.5355    16.8905    40.0000 </r>
       <r>   -23.4171     0.0000    40.0000 </r>
       <r>   -23.2987     0.0000    40.0000 </r>
       <r>   -23.1803     0.0000    40.0000 </r>
       <r>   -23.0619     0.0000    40.0000 </r>
       <r>   -22.9435     0.0000    40.0000 </r>
       <r>   -22.8251     0.0000    40.0000 </r>
       <r>   -22.7067     0.0015    40.0002 </r>
       <r>   -22.5883    24.9136    44.0000 </r>
       <r>   -22.4698     9.2898    46.0000 </r>
       <r>   -22.3514     0.0000    46.0000 </r>
       <r>   -22.2330     0.0000    46.0000 </r>
       <r>   -22.1146     0.0301    46.0036 </r>
       <r>   -21.9962    13.5124    50.0000 </r>
       <r>   -21.8778     0.0000    50.0000 </r>
       <r>   -21.7594    16.0618    51.9019 </r>
       <r>   -21.6410     0.0000    52.0000 </r>
       <r>   -21.5226     6.6283    52.7848 </r>
       <r>   -21.4042     8.8675    56.0000 </r>
       <r>   -21.2858     0.0000    56.0000 </r>
       <r>   -21.1673     0.0000    56.0000 </r>
       <r>   -21.0489     0.0000    56.0000 </r>
       <r>   -20.9305     0.0000    56.0000 </r>
       <r>   -20.8121     0.0000    56.0000 </r>
       <r>   -20.6937     0.0000    56.0000 </r>
       <r>   -20.5753     0.7890    56.0934 </r>
       <r>   -20.4569    74.7584    65.6854 </r>
       <r>   -20.3385     4.7691    66.5647 </r>
       <r>   -20.2201     7.8823    68.0000 </r>
       <r>   -20.1017     9.3201    69.1036 </r>
       <r>   -19.9832     8.9829    72.4637 </r>
       <r>   -19.8648     1.7164    72.8032 </r>
       <r>   -19.7464     1.7421    73.1229 </r>
       <r>   -19.6280     6.1481    74.0113 </r>
       <r>   -19.5096     1.8942    75.0243 </r>
       <r>   -19.3912     1.6016    75.3230 </r>
       <r>   -19.2728     2.1077    75.6496 </r>
       <r>   -19.1544    18.5796    78.0000 </r>
       <r>   -19.0360     0.0000    78.0000 </r>
       <r>   -18.9176    11.4565    79.3566 </r>
       <r>   -18.7992    12.6679    81.9000 </r>
       <r>   -18.6807    13.9626    83.6533 </r>
       <r>   -18.5623     7.7888    85.5223 </r>
       <r>   -18.4439    16.8905    88.0000 </r>
       <r>   -18.3255     0.0000    88.0000 </r>
       <r>   -18.2071    11.7480    89.3911 </r>
       <r>   -18.0887     0.0000    92.0000 </r>
       <r>   -17.9703     0.0000    92.0000 </r>
       <r>   -17.8519    16.8905    94.0000 </r>
       <r>   -17.7335     0.0000    94.0000 </r>
       <r>   -17.6151    16.8905    96.0000 </r>
       <r>   -17.4966     0.0000    96.0000 </r>
       <r>   -17.3782     0.0000    96.0000 </r>
       <r>   -17.2598    45.8214   103.5757 </r>
       <r>   -17.1414     3.7211   107.2239 </r>
       <r>   -17.0230     0.0000   108.0000 </r>
       <r>   -16.9046     3.0243   108.3581 </r>
       <r>   -16.7862     4.6012   109.0115 </r>
       <r>   -16.6678    19.0440   111.4550 </r>
       <r>   -16.5494     2.2951   112.5384 </r>
       <r>   -16.4310     2.0689   112.9116 </r>
       <r>   -16.3126     8.0939   113.9917 </r>
       <r>   -16.1941     4.0803   114.5498 </r>
       <r>   -16.0757     2.0266   115.0733 </r>
       <r>   -15.9573     0.0000   116.0000 </r>
       <r>   -15.8389     2.3313   116.2761 </r>
       <r>   -15.7205     4.7051   116.9571 </r>
       <r>   -15.6021     7.6008   118.0000 </r>
       <r>   -15.4837     7.4140   119.1779 </r>
       <r>   -15.3653     3.4436   122.4911 </r>
       <r>   -15.2469    10.5660   123.9178 </r>
       <r>   -15.1285     0.0000   124.0000 </r>
       <r>   -15.0100     0.0000   124.0000 </r>
       <r>   -14.8916    16.8905   126.0000 </r>
       <r>   -14.7732    29.1625   129.4531 </r>
       <r>   -14.6548     0.0008   130.0001 </r>
       <r>   -14.5364     6.8162   131.2738 </r>
       <r>   -14.4180    41.3374   136.4781 </r>
       <r>   -14.2996    15.7645   142.0000 </r>
       <r>   -14.1812     0.0000   142.0000 </r>
       <r>   -14.0628     0.0000   142.0000 </r>
       <r>   -13.9444    33.7811   146.0000 </r>
       <r>   -13.8260    12.1544   147.4392 </r>
       <r>   -13.7075    14.8365   150.6234 </r>
       <r>   -13.5891     8.1567   152.3658 </r>
       <r>   -13.4707     3.9124   153.0633 </r>
       <r>   -13.3523     6.1337   153.8930 </r>
       <r>   -13.2339    27.5276   159.2595 </r>
       <r>   -13.1155    16.8905   162.0000 </r>
       <r>   -12.9971    35.9776   166.2601 </r>
       <r>   -12.8787    55.0603   174.7697 </r>
       <r>   -12.7603    30.1799   180.5569 </r>
       <r>   -12.6419    45.5942   188.5488 </r>
       <r>   -12.5234    50.4169   197.1532 </r>
       <r>   -12.4050    30.4762   201.6087 </r>
       <r>   -12.2866    24.2610   204.8727 </r>
       <r>   -12.1682    21.9432   208.5983 </r>
       <r>   -12.0498    43.8720   215.1949 </r>
       <r>   -11.9314     0.0000   218.0000 </r>
       <r>   -11.8130     0.0000   218.0000 </r>
       <r>   -11.6946    38.6927   222.5816 </r>
       <r>   -11.5762    11.2604   226.0000 </r>
       <r>   -11.4578    19.7291   228.3361 </r>
       <r>   -11.3394    10.1403   229.9007 </r>
       <r>   -11.2209    12.1049   234.0000 </r>
       <r>   -11.1025    46.7158   239.9983 </r>
       <r>   -10.9841     5.6003   240.6631 </r>
       <r>   -10.8657     0.0000   244.0000 </r>
       <r>   -10.7473    33.7636   247.9979 </r>
       <r>   -10.6289    16.8893   249.9999 </r>
       <r>   -10.5105     0.0000   250.0000 </r>
       <r>   -10.3921    10.4753   251.2404 </r>
       <r>   -10.2737     5.0588   254.5990 </r>
       <r>   -10.1553    15.1935   258.4824 </r>
       <r>   -10.0368    25.7986   262.7881 </r>
       <r>    -9.9184    19.6112   266.6388 </r>
       <r>    -9.8000    39.9101   271.9591 </r>
       <r>    -9.6816    44.4052   277.4913 </r>
       <r>    -9.5632    33.7811   282.0000 </r>
       <r>    -9.4448    10.9012   283.2908 </r>
       <r>    -9.3264    16.8921   288.0002 </r>
       <r>    -9.2080    28.7190   292.0006 </r>
       <r>    -9.0896     9.7121   296.0000 </r>
       <r>    -8.9712     0.0000   296.0000 </r>
       <r>    -8.8528     0.0000   296.0000 </r>
       <r>    -8.7343    14.6430   297.7339 </r>
       <r>    -8.6159    27.9444   301.3089 </r>
       <r>    -8.4975    26.8163   305.1753 </r>
       <r>    -8.3791    17.3861   308.0587 </r>
       <r>    -8.2607     9.8528   310.0000 </r>
       <r>    -8.1423     0.0000   310.0000 </r>
       <r>    -8.0239    31.6815   313.7514 </r>
       <r>    -7.9055     0.0000   314.0000 </r>
       <r>    -7.7871    16.7663   315.9853 </r>
       <r>    -7.6687    33.6983   319.9902 </r>
       <r>    -7.5503    26.0753   323.0876 </r>
       <r>    -7.4318    70.0016   335.6555 </r>
       <r>    -7.3134    33.9110   340.0154 </r>
       <r>    -7.1950    58.4381   348.9196 </r>
       <r>    -7.0766    22.0972   352.6165 </r>
       <r>    -6.9582    33.7450   357.9957 </r>
       <r>    -6.8398    33.8438   362.0074 </r>
       <r>    -6.7214    24.4913   366.0000 </r>
       <r>    -6.6030     0.0000   366.0000 </r>
       <r>    -6.4846    60.4565   373.1586 </r>
       <r>    -6.3662    65.4346   382.5814 </r>
       <r>    -6.2477    13.0303   386.2929 </r>
       <r>    -6.1293    11.7297   389.7722 </r>
       <r>    -6.0109    33.7346   393.9945 </r>
       <r>    -5.8925    16.8905   396.0000 </r>
       <r>    -5.7741     0.0000   396.0000 </r>
       <r>    -5.6557     7.2568   396.8593 </r>
       <r>    -5.5373    33.1002   403.9194 </r>
       <r>    -5.4189     0.0000   404.0000 </r>
       <r>    -5.3005     0.0000   404.0000 </r>
       <r>    -5.1821     0.0000   404.0000 </r>
       <r>    -5.0637     0.0000   404.0000 </r>
       <r>    -4.9452     0.0000   404.0000 </r>
       <r>    -4.8268     0.0000   404.0000 </r>
       <r>    -4.7084     0.0000   404.0000 </r>
       <r>    -4.5900     0.0000   404.0000 </r>
       <r>    -4.4716     0.0000   404.0000 </r>
       <r>    -4.3532     0.0000   404.0000 </r>
       <r>    -4.2348     0.0000   404.0000 </r>
       <r>    -4.1164     0.0000   404.0000 </r>
       <r>    -3.9980     0.0000   404.0000 </r>
       <r>    -3.8796     0.0000   404.0000 </r>
       <r>    -3.7611     0.0000   404.0000 </r>
       <r>    -3.6427     0.0000   404.0000 </r>
       <r>    -3.5243     0.0000   404.0000 </r>
       <r>    -3.4059    19.3604   406.2925 </r>
       <r>    -3.2875    33.7811   412.0000 </r>
       <r>    -3.1691    48.5833   419.7527 </r>
       <r>    -3.0507     0.0000   420.0000 </r>
       <r>    -2.9323     0.0109   420.0013 </r>
       <r>    -2.8139    14.3007   423.6933 </r>
       <r>    -2.6955    29.3720   427.9779 </r>
       <r>    -2.5771     0.0000   428.0000 </r>
       <r>    -2.4586     0.0000   428.0000 </r>
       <r>    -2.3402     0.0000   428.0000 </r>
       <r>    -2.2218     0.0000   428.0000 </r>
       <r>    -2.1034     0.0000   428.0000 </r>
       <r>    -1.9850     0.0000   428.0000 </r>
       <r>    -1.8666     0.0000   428.0000 </r>
       <r>    -1.7482     0.0000   428.0000 </r>
       <r>    -1.6298    29.6992   432.0000 </r>
       <r>    -1.5114    16.7085   433.9784 </r>
       <r>    -1.3930     0.0000   434.0000 </r>
       <r>    -1.2745    18.8421   436.5977 </r>
       <r>    -1.1561    16.0345   441.8986 </r>
       <r>    -1.0377    27.8232   447.2945 </r>
       <r>    -0.9193     0.0000   448.0000 </r>
       <r>    -0.8009    16.3545   449.9365 </r>
       <r>    -0.6825     9.5713   452.0000 </r>
       <r>    -0.5641     0.0000   452.0000 </r>
       <r>    -0.4457    33.7811   456.0000 </r>
       <r>    -0.3273    15.1041   458.7385 </r>
       <r>    -0.2089     0.0002   460.0000 </r>
       <r>    -0.0905     0.0000   462.0000 </r>
       <r>     0.0280    29.6319   465.5087 </r>
       <r>     0.1464    16.8579   467.9961 </r>
       <r>     0.2648    39.3571   474.8436 </r>
       <r>     0.3832    11.5143   476.5967 </r>
       <r>     0.5016    17.1799   480.0009 </r>
       <r>     0.6200    40.3379   486.8097 </r>
       <r>     0.7384    36.7261   493.4154 </r>
       <r>     0.8568    28.2986   497.4008 </r>
       <r>     0.9752    30.0844   502.8623 </r>
       <r>     1.0936    41.7242   509.8739 </r>
       <r>     1.2121    39.3465   516.8923 </r>
       <r>     1.3305    49.9703   525.1003 </r>
       <r>     1.4489    46.9108   532.3380 </r>
       <r>     1.5673    53.7445   541.7972 </r>
       <r>     1.6857     6.1932   544.0000 </r>
       <r>     1.8041     0.0000   544.0000 </r>
       <r>     1.9225     0.0000   544.0000 </r>
       <r>     2.0409     0.0000   544.0000 </r>
       <r>     2.1593     0.0000   544.0000 </r>
       <r>     2.2777     0.0000   544.0000 </r>
       <r>     2.3961     0.0000   544.0000 </r>
       <r>     2.5146     0.0000   544.0000 </r>
       <r>     2.6330     0.0000   544.0000 </r>
       <r>     2.7514     0.0000   544.0000 </r>
       <r>     2.8698     0.0000   544.0000 </r>
       <r>     2.9882     0.0000   544.0000 </r>
       <r>     3.1066     0.0000   544.0000 </r>
       <r>     3.2250     0.0000   544.0000 </r>
      </set>
     </set>
    </array>
   </total>
  </dos>
 </calculation>
 <structure name="finalpos" >
  <crystal>
   <varray name="basis" >
    <v>      21.81601675       0.18730025       0.00000000 </v>
    <v>       0.18683946      21.81765091       0.00000000 </v>
    <v>       0.00000000       0.00000000      20.00000000 </v>
   </varray>
   <i name="volume">   9518.78485164 </i>
   <varray name="rec_basis" >
    <v>       0.04584125      -0.00039257       0.00000000 </v>
    <v>      -0.00039354       0.04583782       0.00000000 </v>
    <v>       0.00000000       0.00000000       0.05000000 </v>
   </varray>
  </crystal>
  <varray name="positions" >
   <v>       0.00007661       0.93960100       0.50934792 </v>
   <v>       0.99991141       0.93619040       0.57929313 </v>
   <v>       0.00560708       0.05212754       0.58749614 </v>
   <v>       0.00314844       0.05696379       0.51774187 </v>
   <v>       0.00772629       0.10573918       0.62672531 </v>
   <v>       0.00668281       0.16321099       0.59800124 </v>
   <v>       0.00342199       0.16883602       0.52775361 </v>
   <v>       0.99299101       0.82800124       0.50372220 </v>
   <v>       0.99105160       0.82541070       0.57418060 </v>
   <v>       0.99521267       0.87873648       0.61082234 </v>
   <v>       0.00546279       0.99164769       0.62297414 </v>
   <v>       0.99078475       0.44463018       0.54080601 </v>
   <v>       0.99297429       0.38313067       0.55849003 </v>
   <v>       0.41825293       0.01362599       0.52016696 </v>
   <v>       0.35625786       0.01082546       0.50455903 </v>
   <v>       0.05757210       0.00180622       0.42599433 </v>
   <v>       0.05412575       0.01037303       0.35669555 </v>
   <v>       0.93784744       0.01554087       0.36262343 </v>
   <v>       0.94000493       0.00625977       0.43186087 </v>
   <v>       0.88458396       0.00381803       0.46757080 </v>
   <v>       0.82802007       0.01236027       0.43583120 </v>
   <v>       0.82654240       0.02230970       0.36612478 </v>
   <v>       0.88070157       0.02322457       0.33059564 </v>
   <v>       0.10850732       0.01252800       0.31878422 </v>
   <v>       0.16534175       0.00677069       0.34848159 </v>
   <v>       0.16956815       0.99791305       0.41828098 </v>
   <v>       0.11563060       0.99520642       0.45590499 </v>
   <v>       0.00203985       0.11564342       0.48876086 </v>
   <v>       0.99794408       0.88490760       0.47227977 </v>
   <v>       0.00056154       0.00076364       0.47118584 </v>
   <v>       0.99442337       0.01776285       0.32027353 </v>
   <v>       0.00023157       0.22944613       0.49681029 </v>
   <v>       0.22986771       0.99240411       0.44985968 </v>
   <v>       0.99051511       0.77060309       0.46582709 </v>
   <v>       0.77031671       0.01140591       0.47316350 </v>
   <v>       0.99795111       0.33748633       0.50942144 </v>
   <v>       0.99886892       0.35614737       0.44205515 </v>
   <v>       0.99532208       0.41794363       0.42596181 </v>
   <v>       0.99211831       0.46502437       0.47413270 </v>
   <v>       0.98613299       0.53204493       0.46019826 </v>
   <v>       0.03659476       0.57091129       0.45379360 </v>
   <v>       0.03173561       0.63440947       0.45791854 </v>
   <v>       0.97484986       0.66263914       0.47223552 </v>
   <v>       0.92282093       0.62573482       0.47420103 </v>
   <v>       0.92894748       0.56269607       0.46657336 </v>
   <v>       0.33789439       0.99865009       0.43855520 </v>
   <v>       0.38375140       0.98817786       0.39049240 </v>
   <v>       0.44503650       0.98923466       0.40830514 </v>
   <v>       0.46534161       0.00371936       0.47311495 </v>
   <v>       0.53211520       0.01337099       0.48444333 </v>
   <v>       0.57411180       0.96495303       0.49624995 </v>
   <v>       0.63722320       0.97044392       0.48913104 </v>
   <v>       0.66187854       0.02653257       0.46898253 </v>
   <v>       0.62193367       0.07749645       0.46372602 </v>
   <v>       0.55933354       0.07047556       0.47164627 </v>
   <v>       0.95461080       0.47452943       0.64509597 </v>
   <v>       0.01896824       0.53529235       0.59387576 </v>
   <v>       0.39300252       0.02528443       0.63250552 </v>
   <v>       0.48798867       0.04227663       0.60232530 </v>
   <v>       0.82535963       0.55309243       0.49266716 </v>
   <v>       0.99826073       0.39141985       0.31312098 </v>
   <v>       0.10668282       0.48866782       0.45303613 </v>
   <v>       0.87234673       0.47519535       0.44410831 </v>
   <v>       0.99081414       0.48899914       0.33894758 </v>
   <v>       0.14098876       0.58075387       0.43298886 </v>
   <v>       0.54674588       0.17622406       0.47803480 </v>
   <v>       0.47937090       0.00419999       0.29986141 </v>
   <v>       0.49697760       0.89950730       0.53092589 </v>
   <v>       0.46733582       0.12271484       0.44681216 </v>
   <v>       0.53225705       0.94103093       0.36455840 </v>
   <v>       0.58812373       0.85957691       0.51060627 </v>
   <v>       0.98762543       0.48853685       0.59732347 </v>
   <v>       0.43421913       0.02821939       0.59010692 </v>
   <v>       0.87126272       0.52755673       0.46832802 </v>
   <v>       0.09933259       0.54484045       0.44611232 </v>
   <v>       0.99478625       0.43390877       0.35409630 </v>
   <v>       0.97044912       0.72242848       0.49450269 </v>
   <v>       0.00154071       0.27773312       0.53378445 </v>
   <v>       0.52143188       0.12739439       0.46487348 </v>
   <v>       0.55139795       0.90332933       0.51357452 </v>
   <v>       0.48927116       0.97759398       0.35352677 </v>
   <v>       0.72107199       0.03191031       0.44548635 </v>
   <v>       0.27825831       0.99991036       0.41425715 </v>
   <v>       0.98708201       0.78094908       0.59847273 </v>
   <v>       0.99502384       0.87679282       0.66540418 </v>
   <v>       0.00974856       0.10116361       0.68109064 </v>
   <v>       0.00774081       0.20473508       0.62818573 </v>
   <v>       0.88579988       0.99609688       0.52155969 </v>
   <v>       0.11872460       0.98843781       0.50997514 </v>
   <v>       0.04775464       0.98688462       0.65313021 </v>
   <v>       0.96808738       0.99198064       0.66022665 </v>
   <v>       0.23108414       0.98133486       0.50385340 </v>
   <v>       0.77128920       0.99303885       0.52471832 </v>
   <v>       0.99123416       0.36992530       0.61093006 </v>
   <v>       0.32316872       0.02022350       0.54415433 </v>
   <v>       0.99956045       0.11997001       0.43437141 </v>
   <v>       0.99915410       0.88710927       0.41768706 </v>
   <v>       0.78234123       0.02879705       0.34152619 </v>
   <v>       0.87973482       0.03020368       0.27651203 </v>
   <v>       0.10506747       0.01912816       0.26474962 </v>
   <v>       0.20745966       0.00883035       0.31938449 </v>
   <v>       0.99442906       0.06144445       0.29231167 </v>
   <v>       0.99172485       0.98222098       0.28106113 </v>
   <v>       0.00675664       0.77067320       0.41344110 </v>
   <v>       0.99585902       0.23060747       0.44170302 </v>
   <v>       0.07340612       0.66104294       0.45531213 </v>
   <v>       0.87762929       0.64570316       0.48392226 </v>
   <v>       0.00205361       0.32351480       0.40097477 </v>
   <v>       0.66604529       0.92951938       0.49461324 </v>
   <v>       0.63958814       0.12239843       0.45108974 </v>
   <v>       0.37078913       0.98020651       0.33868370 </v>
  </varray>
 </structure>
</modeling>
