<?xml version="1.0" encoding="ISO-8859-1"?>
<modeling>
 <generator>
  <i name="program" type="string">vasp </i>
  <i name="version" type="string">5.4.4.18Apr17-6-g9f103f2a35  </i>
  <i name="subversion" type="string">(build Jun 07 2020 16:50:00) complex            parallel </i>
  <i name="platform" type="string">LinuxIFC </i>
  <i name="date" type="string">2023 03 06 </i>
  <i name="time" type="string">17:57:19 </i>
 </generator>
 <incar>
  <i type="string" name="SYSTEM">Simulation for cell shape cell volume r</i>
  <i type="int" name="ISTART">     1</i>
  <i type="string" name="PREC">high</i>
  <i type="string" name="ALGO">48</i>
  <i type="int" name="ICHARG">    11</i>
  <i type="int" name="NELM">   200</i>
  <i type="int" name="IBRION">    -1</i>
  <i name="EDIFF">      0.00001000</i>
  <i name="EDIFFG">     -0.01000000</i>
  <i type="int" name="NSW">     0</i>
  <i type="int" name="ISIF">     2</i>
  <i name="ENCUT">    500.00000000</i>
  <i name="POTIM">      0.30000000</i>
  <i type="string" name="LREAL">A</i>
  <i type="int" name="ISMEAR">     0</i>
  <i name="SIGMA">      0.01000000</i>
  <i type="int" name="NWRITE">     0</i>
  <i type="logical" name="LWAVE"> F  </i>
  <i type="logical" name="LCHARG"> F  </i>
  <v type="int" name="KPOINT_BSE">    -1     0     0     0</v>
  <i type="int" name="NELM">   200</i>
  <i type="string" name="GGA">PE</i>
 </incar>
 <structure name="primitive_cell" >
  <crystal>
   <varray name="basis" >
    <v>      22.41063567      -0.00000004       0.00000000 </v>
    <v>     -11.20531780      19.40817983       0.00000000 </v>
    <v>       0.00000000       0.00000000      20.00000000 </v>
   </varray>
   <i name="volume">   8698.99293269 </i>
   <varray name="rec_basis" >
    <v>       0.04462167       0.02576233       0.00000000 </v>
    <v>       0.00000000       0.05152467       0.00000000 </v>
    <v>       0.00000000       0.00000000       0.05000000 </v>
   </varray>
  </crystal>
  <varray name="positions" >
   <v>      -0.40901943       0.20568997       0.45445449 </v>
   <v>      -0.37521952       0.26155040       0.45526516 </v>
   <v>      -0.40545535       0.30359320       0.45543359 </v>
   <v>      -0.30359320       0.29095145       0.45543359 </v>
   <v>      -0.30980176       0.19074601       0.44614059 </v>
   <v>       0.47832171       0.20845780       0.46224429 </v>
   <v>      -0.48035632       0.27341878       0.45463334 </v>
   <v>      -0.27341878       0.24622490       0.45463334 </v>
   <v>      -0.36323008       0.37521952       0.45526516 </v>
   <v>      -0.26155040       0.36323008       0.45526516 </v>
   <v>      -0.49945222       0.30980176       0.44614059 </v>
   <v>       0.40776270       0.18253776       0.46538798 </v>
   <v>      -0.29095145       0.40545535       0.45543359 </v>
   <v>      -0.20845780       0.26986390       0.46224429 </v>
   <v>       0.39044714       0.08559133       0.39850499 </v>
   <v>      -0.20568997       0.38529059       0.45445449 </v>
   <v>      -0.38529059       0.40901943       0.45445449 </v>
   <v>      -0.26204830       0.14963663      -0.47163681 </v>
   <v>       0.36263648       0.11815368       0.43302038 </v>
   <v>      -0.18253776       0.22522493       0.46538798 </v>
   <v>       0.37812212       0.21449357      -0.49857759 </v>
   <v>      -0.21449357       0.16362855      -0.49857759 </v>
   <v>       0.41168493       0.26204830      -0.47163681 </v>
   <v>       0.34713720       0.02700079       0.36878004 </v>
   <v>       0.36930465       0.00002924       0.34202015 </v>
   <v>      -0.24622490       0.48035632       0.45463334 </v>
   <v>       0.28906799       0.08923996       0.43665919 </v>
   <v>      -0.19074601       0.49945222       0.44614059 </v>
   <v>      -0.11815368       0.24448280       0.43302038 </v>
   <v>      -0.26986390      -0.47832171       0.46224429 </v>
   <v>       0.30663111       0.18644761      -0.49513803 </v>
   <v>      -0.18644761       0.12018351      -0.49513803 </v>
   <v>       0.27492974      -0.00022960       0.37008516 </v>
   <v>      -0.08559133       0.30485581       0.39850499 </v>
   <v>      -0.21314009       0.07186441      -0.46741492 </v>
   <v>       0.26058443       0.12422557       0.47418670 </v>
   <v>       0.24640448       0.03017390       0.40318057 </v>
   <v>       0.28500449       0.21314009      -0.46741492 </v>
   <v>      -0.08923996       0.19982803       0.43665919 </v>
   <v>      -0.12422557       0.13635886       0.47418670 </v>
   <v>       0.24039066      -0.04750565       0.34284639 </v>
   <v>      -0.22522493      -0.40776270       0.46538798 </v>
   <v>      -0.14963663      -0.41168493      -0.47163681 </v>
   <v>      -0.02700079       0.32013640       0.36878004 </v>
   <v>       0.19111061       0.10288445       0.47872071 </v>
   <v>      -0.16362855      -0.37812212      -0.49857759 </v>
   <v>      -0.30485581      -0.39044714       0.39850499 </v>
   <v>      -0.00002924       0.36927540       0.34202015 </v>
   <v>      -0.03017390       0.21623057       0.40318057 </v>
   <v>      -0.24448280      -0.36263648       0.43302038 </v>
   <v>       0.15424750      -0.00332216       0.48460303 </v>
   <v>      -0.10288445       0.08822616       0.47872071 </v>
   <v>       0.00022960       0.27515934       0.37008516 </v>
   <v>       0.14324181       0.03923271       0.48137878 </v>
   <v>      -0.32013640      -0.34713720       0.36878004 </v>
   <v>      -0.36927540      -0.36930465       0.34202015 </v>
   <v>      -0.12018351      -0.30663111      -0.49513803 </v>
   <v>      -0.03923271       0.10400910       0.48137878 </v>
   <v>       0.04750565       0.28789631       0.34284639 </v>
   <v>       0.00332216       0.15756966       0.48460303 </v>
   <v>      -0.19982803      -0.28906799       0.43665919 </v>
   <v>      -0.07186441      -0.28500449      -0.46741492 </v>
   <v>      -0.12428321      -0.03454321       0.48126454 </v>
   <v>       0.07037767       0.01981840       0.48122793 </v>
   <v>      -0.13635886      -0.26058443       0.47418670 </v>
   <v>       0.08974000       0.12428321       0.48126454 </v>
   <v>      -0.27515934      -0.27492974       0.37008516 </v>
   <v>       0.03454321      -0.08974000       0.48126454 </v>
   <v>      -0.21623057      -0.24640448       0.40318057 </v>
   <v>      -0.01981840       0.05055927       0.48122793 </v>
   <v>       0.04993613       0.06995692       0.48121556 </v>
   <v>      -0.06995692      -0.02002079       0.48121556 </v>
   <v>       0.02002079      -0.04993613       0.48121556 </v>
   <v>      -0.28789631      -0.24039066       0.34284639 </v>
   <v>      -0.08822616      -0.19111061       0.47872071 </v>
   <v>      -0.15756966      -0.15424750       0.48460303 </v>
   <v>      -0.05055927      -0.07037767       0.48122793 </v>
   <v>      -0.10400910      -0.14324181       0.48137878 </v>
  </varray>
 </structure>
 <varray name="primitive_index" >
  <v type="int" >        1 </v>
  <v type="int" >       28 </v>
  <v type="int" >       29 </v>
  <v type="int" >       27 </v>
  <v type="int" >        6 </v>
  <v type="int" >       72 </v>
  <v type="int" >       32 </v>
  <v type="int" >       31 </v>
  <v type="int" >       30 </v>
  <v type="int" >       26 </v>
  <v type="int" >        5 </v>
  <v type="int" >       40 </v>
  <v type="int" >       25 </v>
  <v type="int" >       70 </v>
  <v type="int" >       71 </v>
  <v type="int" >        3 </v>
  <v type="int" >        2 </v>
  <v type="int" >       10 </v>
  <v type="int" >       41 </v>
  <v type="int" >       39 </v>
  <v type="int" >       45 </v>
  <v type="int" >       44 </v>
  <v type="int" >       12 </v>
  <v type="int" >       42 </v>
  <v type="int" >        9 </v>
  <v type="int" >       33 </v>
  <v type="int" >       63 </v>
  <v type="int" >        4 </v>
  <v type="int" >       55 </v>
  <v type="int" >       69 </v>
  <v type="int" >       66 </v>
  <v type="int" >       43 </v>
  <v type="int" >       64 </v>
  <v type="int" >       74 </v>
  <v type="int" >       11 </v>
  <v type="int" >       65 </v>
  <v type="int" >       77 </v>
  <v type="int" >       24 </v>
  <v type="int" >       56 </v>
  <v type="int" >       62 </v>
  <v type="int" >       23 </v>
  <v type="int" >       34 </v>
  <v type="int" >       21 </v>
  <v type="int" >       58 </v>
  <v type="int" >       78 </v>
  <v type="int" >       61 </v>
  <v type="int" >       68 </v>
  <v type="int" >       20 </v>
  <v type="int" >       73 </v>
  <v type="int" >       35 </v>
  <v type="int" >       17 </v>
  <v type="int" >       76 </v>
  <v type="int" >       57 </v>
  <v type="int" >       53 </v>
  <v type="int" >       38 </v>
  <v type="int" >        8 </v>
  <v type="int" >       60 </v>
  <v type="int" >       52 </v>
  <v type="int" >       19 </v>
  <v type="int" >       18 </v>
  <v type="int" >       36 </v>
  <v type="int" >       22 </v>
  <v type="int" >       15 </v>
  <v type="int" >       50 </v>
  <v type="int" >       59 </v>
  <v type="int" >       13 </v>
  <v type="int" >       37 </v>
  <v type="int" >       14 </v>
  <v type="int" >       67 </v>
  <v type="int" >       48 </v>
  <v type="int" >       49 </v>
  <v type="int" >       47 </v>
  <v type="int" >       51 </v>
  <v type="int" >        7 </v>
  <v type="int" >       75 </v>
  <v type="int" >       16 </v>
  <v type="int" >       46 </v>
  <v type="int" >       54 </v>
 </varray>
 <kpoints>
  <generation param="listgenerated">
   <i name="divisions" type="int">      20 </i>
   <v>       0.00000000       0.00000000       0.00000000 </v>
   <v>       0.50000000       0.00000000       0.00000000 </v>
   <v>       0.33333333       0.33333333       0.00000000 </v>
   <v>       0.00000000       0.00000000       0.00000000 </v>
  </generation>
  <varray name="kpointlist" >
   <v>       0.00000000       0.00000000       0.00000000 </v>
   <v>       0.02631579       0.00000000       0.00000000 </v>
   <v>       0.05263158       0.00000000       0.00000000 </v>
   <v>       0.07894737       0.00000000       0.00000000 </v>
   <v>       0.10526316       0.00000000       0.00000000 </v>
   <v>       0.13157895       0.00000000       0.00000000 </v>
   <v>       0.15789474       0.00000000       0.00000000 </v>
   <v>       0.18421053       0.00000000       0.00000000 </v>
   <v>       0.21052632       0.00000000       0.00000000 </v>
   <v>       0.23684211       0.00000000       0.00000000 </v>
   <v>       0.26315789       0.00000000       0.00000000 </v>
   <v>       0.28947368       0.00000000       0.00000000 </v>
   <v>       0.31578947       0.00000000       0.00000000 </v>
   <v>       0.34210526       0.00000000       0.00000000 </v>
   <v>       0.36842105       0.00000000       0.00000000 </v>
   <v>       0.39473684       0.00000000       0.00000000 </v>
   <v>       0.42105263       0.00000000       0.00000000 </v>
   <v>       0.44736842       0.00000000       0.00000000 </v>
   <v>       0.47368421       0.00000000       0.00000000 </v>
   <v>       0.50000000       0.00000000       0.00000000 </v>
   <v>       0.50000000       0.00000000       0.00000000 </v>
   <v>       0.49122807       0.01754386       0.00000000 </v>
   <v>       0.48245614       0.03508772       0.00000000 </v>
   <v>       0.47368421       0.05263158       0.00000000 </v>
   <v>       0.46491228       0.07017544       0.00000000 </v>
   <v>       0.45614035       0.08771930       0.00000000 </v>
   <v>       0.44736842       0.10526316       0.00000000 </v>
   <v>       0.43859649       0.12280702       0.00000000 </v>
   <v>       0.42982456       0.14035088       0.00000000 </v>
   <v>       0.42105263       0.15789474       0.00000000 </v>
   <v>       0.41228070       0.17543860       0.00000000 </v>
   <v>       0.40350877       0.19298246       0.00000000 </v>
   <v>       0.39473684       0.21052632       0.00000000 </v>
   <v>       0.38596491       0.22807018       0.00000000 </v>
   <v>       0.37719298       0.24561404       0.00000000 </v>
   <v>       0.36842105       0.26315789       0.00000000 </v>
   <v>       0.35964912       0.28070175       0.00000000 </v>
   <v>       0.35087719       0.29824561       0.00000000 </v>
   <v>       0.34210526       0.31578947       0.00000000 </v>
   <v>       0.33333333       0.33333333       0.00000000 </v>
   <v>       0.33333333       0.33333333       0.00000000 </v>
   <v>       0.31578947       0.31578947       0.00000000 </v>
   <v>       0.29824561       0.29824561       0.00000000 </v>
   <v>       0.28070175       0.28070175       0.00000000 </v>
   <v>       0.26315789       0.26315789       0.00000000 </v>
   <v>       0.24561404       0.24561404       0.00000000 </v>
   <v>       0.22807018       0.22807018       0.00000000 </v>
   <v>       0.21052632       0.21052632       0.00000000 </v>
   <v>       0.19298246       0.19298246       0.00000000 </v>
   <v>       0.17543860       0.17543860       0.00000000 </v>
   <v>       0.15789474       0.15789474       0.00000000 </v>
   <v>       0.14035088       0.14035088       0.00000000 </v>
   <v>       0.12280702       0.12280702       0.00000000 </v>
   <v>       0.10526316       0.10526316       0.00000000 </v>
   <v>       0.08771930       0.08771930       0.00000000 </v>
   <v>       0.07017544       0.07017544       0.00000000 </v>
   <v>       0.05263158       0.05263158       0.00000000 </v>
   <v>       0.03508772       0.03508772       0.00000000 </v>
   <v>       0.01754386       0.01754386       0.00000000 </v>
   <v>       0.00000000       0.00000000       0.00000000 </v>
  </varray>
  <varray name="weights" >
   <v>       0.01666667 </v>
   <v>       0.01666667 </v>
   <v>       0.01666667 </v>
   <v>       0.01666667 </v>
   <v>       0.01666667 </v>
   <v>       0.01666667 </v>
   <v>       0.01666667 </v>
   <v>       0.01666667 </v>
   <v>       0.01666667 </v>
   <v>       0.01666667 </v>
   <v>       0.01666667 </v>
   <v>       0.01666667 </v>
   <v>       0.01666667 </v>
   <v>       0.01666667 </v>
   <v>       0.01666667 </v>
   <v>       0.01666667 </v>
   <v>       0.01666667 </v>
   <v>       0.01666667 </v>
   <v>       0.01666667 </v>
   <v>       0.01666667 </v>
   <v>       0.01666667 </v>
   <v>       0.01666667 </v>
   <v>       0.01666667 </v>
   <v>       0.01666667 </v>
   <v>       0.01666667 </v>
   <v>       0.01666667 </v>
   <v>       0.01666667 </v>
   <v>       0.01666667 </v>
   <v>       0.01666667 </v>
   <v>       0.01666667 </v>
   <v>       0.01666667 </v>
   <v>       0.01666667 </v>
   <v>       0.01666667 </v>
   <v>       0.01666667 </v>
   <v>       0.01666667 </v>
   <v>       0.01666667 </v>
   <v>       0.01666667 </v>
   <v>       0.01666667 </v>
   <v>       0.01666667 </v>
   <v>       0.01666667 </v>
   <v>       0.01666667 </v>
   <v>       0.01666667 </v>
   <v>       0.01666667 </v>
   <v>       0.01666667 </v>
   <v>       0.01666667 </v>
   <v>       0.01666667 </v>
   <v>       0.01666667 </v>
   <v>       0.01666667 </v>
   <v>       0.01666667 </v>
   <v>       0.01666667 </v>
   <v>       0.01666667 </v>
   <v>       0.01666667 </v>
   <v>       0.01666667 </v>
   <v>       0.01666667 </v>
   <v>       0.01666667 </v>
   <v>       0.01666667 </v>
   <v>       0.01666667 </v>
   <v>       0.01666667 </v>
   <v>       0.01666667 </v>
   <v>       0.01666667 </v>
  </varray>
 </kpoints>
 <parameters>
  <separator name="general" >
   <i type="string" name="SYSTEM">Simulation for cell shape cell volume r</i>
   <i type="logical" name="LCOMPAT"> F  </i>
  </separator>
  <separator name="electronic" >
   <i type="string" name="PREC">high</i>
   <i name="ENMAX">    500.00000000</i>
   <i name="ENAUG">    644.87300000</i>
   <i name="EDIFF">      0.00001000</i>
   <i type="int" name="IALGO">    38</i>
   <i type="int" name="IWAVPR">    10</i>
   <i type="int" name="NBANDS">   176</i>
   <i name="NELECT">    252.00000000</i>
   <i type="int" name="TURBO">     0</i>
   <i type="int" name="IRESTART">     0</i>
   <i type="int" name="NREBOOT">     0</i>
   <i type="int" name="NMIN">     0</i>
   <i name="EREF">      0.00000000</i>
   <separator name="electronic smearing" >
    <i type="int" name="ISMEAR">     0</i>
    <i name="SIGMA">      0.01000000</i>
    <i name="KSPACING">      0.50000000</i>
    <i type="logical" name="KGAMMA"> T  </i>
   </separator>
   <separator name="electronic projectors" >
    <i type="logical" name="LREAL"> T  </i>
    <v name="ROPT">     -0.00040000     -0.00040000     -0.00040000</v>
    <i type="int" name="LMAXPAW">  -100</i>
    <i type="int" name="LMAXMIX">     2</i>
    <i type="logical" name="NLSPLINE"> F  </i>
   </separator>
   <separator name="electronic startup" >
    <i type="int" name="ISTART">     1</i>
    <i type="int" name="ICHARG">    11</i>
    <i type="int" name="INIWAV">     1</i>
   </separator>
   <separator name="electronic spin" >
    <i type="int" name="ISPIN">     1</i>
    <i type="logical" name="LNONCOLLINEAR"> F  </i>
    <v name="MAGMOM">      1.00000000      1.00000000      1.00000000      1.00000000      1.00000000      1.00000000      1.00000000      1.00000000      1.00000000      1.00000000      1.00000000      1.00000000      1.00000000      1.00000000      1.00000000      1.00000000      1.00000000      1.00000000      1.00000000      1.00000000
      1.00000000      1.00000000      1.00000000      1.00000000      1.00000000      1.00000000      1.00000000      1.00000000      1.00000000      1.00000000      1.00000000      1.00000000      1.00000000      1.00000000      1.00000000      1.00000000      1.00000000      1.00000000      1.00000000      1.00000000
      1.00000000      1.00000000      1.00000000      1.00000000      1.00000000      1.00000000      1.00000000      1.00000000      1.00000000      1.00000000      1.00000000      1.00000000      1.00000000      1.00000000      1.00000000      1.00000000      1.00000000      1.00000000      1.00000000      1.00000000
      1.00000000      1.00000000      1.00000000      1.00000000      1.00000000      1.00000000      1.00000000      1.00000000      1.00000000      1.00000000      1.00000000      1.00000000      1.00000000      1.00000000      1.00000000      1.00000000      1.00000000      1.00000000</v>
    <i name="NUPDOWN">     -1.00000000</i>
    <i type="logical" name="LSORBIT"> F  </i>
    <v name="SAXIS">      0.00000000      0.00000000      1.00000000</v>
    <i type="logical" name="LSPIRAL"> F  </i>
    <v name="QSPIRAL">      0.00000000      0.00000000      0.00000000</v>
    <i type="logical" name="LZEROZ"> F  </i>
   </separator>
   <separator name="electronic exchange-correlation" >
    <i type="logical" name="LASPH"> F  </i>
    <i type="logical" name="LMETAGGA"> F  </i>
   </separator>
   <separator name="electronic convergence" >
    <i type="int" name="NELM">   200</i>
    <i type="int" name="NELMDL">     0</i>
    <i type="int" name="NELMIN">     2</i>
    <i name="ENINI">    500.00000000</i>
    <separator name="electronic convergence detail" >
     <i type="logical" name="LDIAG"> T  </i>
     <i type="logical" name="LSUBROT"> F  </i>
     <i name="WEIMIN">      0.00000000</i>
     <i name="EBREAK">      0.00000001</i>
     <i name="DEPER">      0.30000000</i>
     <i type="int" name="NRMM">     4</i>
     <i name="TIME">      0.40000000</i>
    </separator>
   </separator>
   <separator name="electronic mixer" >
    <i name="AMIX">      0.40000000</i>
    <i name="BMIX">      1.00000000</i>
    <i name="AMIN">      0.10000000</i>
    <i name="AMIX_MAG">      1.60000000</i>
    <i name="BMIX_MAG">      1.00000000</i>
    <separator name="electronic mixer details" >
     <i type="int" name="IMIX">     4</i>
     <i type="logical" name="MIXFIRST"> F  </i>
     <i type="int" name="MAXMIX">   -45</i>
     <i name="WC">    100.00000000</i>
     <i type="int" name="INIMIX">     1</i>
     <i type="int" name="MIXPRE">     1</i>
     <i type="int" name="MREMOVE">     5</i>
    </separator>
   </separator>
   <separator name="electronic dipolcorrection" >
    <i type="logical" name="LDIPOL"> F  </i>
    <i type="logical" name="LMONO"> F  </i>
    <i type="int" name="IDIPOL">     0</i>
    <i name="EPSILON">      1.00000000</i>
    <v name="DIPOL">   -100.00000000   -100.00000000   -100.00000000</v>
    <i name="EFIELD">      0.00000000</i>
   </separator>
  </separator>
  <separator name="grids" >
   <i type="int" name="NGX">   168</i>
   <i type="int" name="NGY">   168</i>
   <i type="int" name="NGZ">   150</i>
   <i type="int" name="NGXF">   250</i>
   <i type="int" name="NGYF">   250</i>
   <i type="int" name="NGZF">   224</i>
   <i type="logical" name="ADDGRID"> F  </i>
  </separator>
  <separator name="ionic" >
   <i type="int" name="NSW">     0</i>
   <i type="int" name="IBRION">    -1</i>
   <i type="int" name="MDALGO">     0</i>
   <i type="int" name="ISIF">     2</i>
   <i name="PSTRESS">      0.00000000</i>
   <i name="EDIFFG">     -0.01000000</i>
   <i type="int" name="NFREE">     0</i>
   <i name="POTIM">      0.30000000</i>
   <i name="SMASS">     -3.00000000</i>
   <i name="SCALEE">      1.00000000</i>
  </separator>
  <separator name="ionic md" >
   <i name="TEBEG">      0.00010000</i>
   <i name="TEEND">      0.00010000</i>
   <i type="int" name="NBLOCK">     1</i>
   <i type="int" name="KBLOCK">     1</i>
   <i type="int" name="NPACO">   256</i>
   <i name="APACO">     16.00000000</i>
  </separator>
  <separator name="symmetry" >
   <i type="int" name="ISYM">     2</i>
   <i name="SYMPREC">      0.00001000</i>
  </separator>
  <separator name="dos" >
   <i type="int" name="LORBIT">     0</i>
   <v name="RWIGS">     -1.00000000     -1.00000000     -1.00000000</v>
   <i type="int" name="NEDOS">   301</i>
   <i name="EMIN">     10.00000000</i>
   <i name="EMAX">    -10.00000000</i>
   <i name="EFERMI">      0.00000000</i>
  </separator>
  <separator name="writing" >
   <i type="int" name="NWRITE">     0</i>
   <i type="logical" name="LWAVE"> F  </i>
   <i type="logical" name="LDOWNSAMPLE"> F  </i>
   <i type="logical" name="LCHARG"> F  </i>
   <i type="logical" name="LPARD"> F  </i>
   <i type="logical" name="LVTOT"> F  </i>
   <i type="logical" name="LVHAR"> F  </i>
   <i type="logical" name="LELF"> F  </i>
   <i type="logical" name="LOPTICS"> F  </i>
   <v name="STM">      0.00000000      0.00000000      0.00000000      0.00000000      0.00000000      0.00000000      0.00000000</v>
  </separator>
  <separator name="performance" >
   <i type="int" name="NPAR">    16</i>
   <i type="int" name="NSIM">     4</i>
   <i type="int" name="NBLK">    -1</i>
   <i type="logical" name="LPLANE"> T  </i>
   <i type="logical" name="LSCALAPACK"> T  </i>
   <i type="logical" name="LSCAAWARE"> F  </i>
   <i type="logical" name="LSCALU"> F  </i>
   <i type="logical" name="LASYNC"> F  </i>
   <i type="logical" name="LORBITALREAL"> F  </i>
  </separator>
  <separator name="miscellaneous" >
   <i type="int" name="IDIOT">     3</i>
   <i type="int" name="ISPECIAL">     0</i>
   <i type="logical" name="LMUSIC"> F  </i>
   <v name="POMASS">      1.00000000     12.01100000     14.00100000</v>
   <v name="DARWINR">      0.00000000      0.00000000      0.00000000</v>
   <v name="DARWINV">      1.00000000      1.00000000      1.00000000</v>
   <i type="logical" name="LCORR"> T  </i>
  </separator>
  <i type="logical" name="GGA_COMPAT"> T  </i>
  <i type="logical" name="LBERRY"> F  </i>
  <i type="int" name="ICORELEVEL">     0</i>
  <i type="logical" name="LDAU"> F  </i>
  <i type="int" name="I_CONSTRAINED_M">     0</i>
  <separator name="electronic exchange-correlation" >
   <i type="string" name="GGA">PE</i>
   <i type="int" name="VOSKOWN">     0</i>
   <i type="logical" name="LHFCALC"> F  </i>
   <i type="string" name="PRECFOCK"></i>
   <i type="logical" name="LSYMGRAD"> F  </i>
   <i type="logical" name="LHFONE"> F  </i>
   <i type="logical" name="LRHFCALC"> F  </i>
   <i type="logical" name="LTHOMAS"> F  </i>
   <i type="logical" name="LMODELHF"> F  </i>
   <i name="ENCUT4O">     -1.00000000</i>
   <i type="int" name="EXXOEP">     0</i>
   <i type="int" name="FOURORBIT">     0</i>
   <i name="AEXX">      0.00000000</i>
   <i name="HFALPHA">      0.00000000</i>
   <i name="MCALPHA">      0.00000000</i>
   <i name="ALDAX">      1.00000000</i>
   <i name="AGGAX">      1.00000000</i>
   <i name="ALDAC">      1.00000000</i>
   <i name="AGGAC">      1.00000000</i>
   <i type="int" name="NKREDX">     1</i>
   <i type="int" name="NKREDY">     1</i>
   <i type="int" name="NKREDZ">     1</i>
   <i type="logical" name="SHIFTRED"> F  </i>
   <i type="logical" name="ODDONLY"> F  </i>
   <i type="logical" name="EVENONLY"> F  </i>
   <i type="int" name="LMAXFOCK">     0</i>
   <i type="int" name="NMAXFOCKAE">     0</i>
   <i type="logical" name="LFOCKAEDFT"> F  </i>
   <i name="HFSCREEN">      0.00000000</i>
   <i name="HFSCREENC">      0.00000000</i>
   <i type="int" name="NBANDSGWLOW">     0</i>
  </separator>
  <separator name="vdW DFT" >
   <i type="logical" name="LUSE_VDW"> F  </i>
   <i name="Zab_VDW">     -0.84910000</i>
   <i name="PARAM1">      0.12340000</i>
   <i name="PARAM2">      1.00000000</i>
   <i name="PARAM3">      0.00000000</i>
  </separator>
  <separator name="model GW" >
   <i type="int" name="MODEL_GW">     0</i>
   <i name="MODEL_EPS0">     66.91533025</i>
   <i name="MODEL_ALPHA">      1.00000000</i>
  </separator>
  <separator name="linear response parameters" >
   <i type="logical" name="LEPSILON"> F  </i>
   <i type="logical" name="LRPA"> F  </i>
   <i type="logical" name="LNABLA"> F  </i>
   <i type="logical" name="LVEL"> F  </i>
   <i type="int" name="KINTER">     0</i>
   <i name="CSHIFT">      0.10000000</i>
   <i name="OMEGAMAX">     -1.00000000</i>
   <i name="DEG_THRESHOLD">      0.00200000</i>
   <i name="RTIME">     -0.10000000</i>
   <i name="WPLASMAI">      0.00000000</i>
   <v name="DFIELD">      0.00000000      0.00000000      0.00000000</v>
   <v name="WPLASMA">      0.00000000      0.00000000      0.00000000      0.00000000      0.00000000      0.00000000      0.00000000      0.00000000      0.00000000</v>
  </separator>
  <separator name="orbital magnetization" >
   <i type="logical" name="NUCIND"> F  </i>
   <v name="MAGPOS">      0.00000000      0.00000000      0.00000000</v>
   <i type="logical" name="LNICSALL"> T  </i>
   <i type="logical" name="ORBITALMAG"> F  </i>
   <i type="logical" name="LMAGBLOCH"> F  </i>
   <i type="logical" name="LCHIMAG"> F  </i>
   <i type="logical" name="LGAUGE"> T  </i>
   <i type="int" name="MAGATOM">     0</i>
   <v name="MAGDIPOL">      0.00000000      0.00000000      0.00000000</v>
   <v name="AVECCONST">      0.00000000      0.00000000      0.00000000</v>
  </separator>
  <separator name="response functions" >
   <i type="logical" name="LADDER"> F  </i>
   <i type="logical" name="LRPAFORCE"> F  </i>
   <i type="logical" name="LFXC"> F  </i>
   <i type="logical" name="LHARTREE"> T  </i>
   <i type="int" name="IBSE">     0</i>
   <v type="int" name="KPOINT">    -1     0     0     0</v>
   <i type="logical" name="LTCTE"> F  </i>
   <i type="logical" name="LTETE"> F  </i>
   <i type="logical" name="LTRIPLET"> F  </i>
   <i type="logical" name="LFXCEPS"> F  </i>
   <i type="logical" name="LFXHEG"> F  </i>
   <i type="int" name="NATURALO">     2</i>
   <i type="logical" name="L2ORDER"> F  </i>
   <i type="logical" name="LMP2LT"> F  </i>
   <i type="logical" name="LUSEW"> F  </i>
   <i name="ENCUTGW">     -2.00000000</i>
   <i name="ENCUTGWSOFT">     -2.00000000</i>
   <i name="ENCUTLF">     -1.00000000</i>
   <i type="int" name="LMAXMP2">    -1</i>
   <i name="SCISSOR">      0.00000000</i>
   <i type="int" name="NOMEGA">     0</i>
   <i type="int" name="NOMEGAR">     0</i>
   <i type="int" name="NBANDSGW">    -1</i>
   <i type="int" name="NBANDSO">    -1</i>
   <i type="int" name="NBANDSV">    -1</i>
   <i type="int" name="NELM">   200</i>
   <i type="int" name="NELMHF">     1</i>
   <i type="int" name="DIM">     3</i>
   <i type="int" name="ANTIRES">     0</i>
   <i name="OMEGAMAX">    -30.00000000</i>
   <i name="OMEGAMIN">    -30.00000000</i>
   <i name="OMEGATL">   -200.00000000</i>
   <i type="int" name="OMEGAGRID">   140</i>
   <i name="CSHIFT">     -0.10000000</i>
   <i type="logical" name="SELFENERGY"> F  </i>
   <i type="logical" name="LSPECTRAL"> F  </i>
   <i type="logical" name="LSPECTRALGW"> F  </i>
   <i type="logical" name="LSINGLES"> F  </i>
   <i type="logical" name="LFERMIGW"> F  </i>
   <i type="logical" name="ODDONLYGW"> F  </i>
   <i type="logical" name="EVENONLYGW"> F  </i>
   <i type="int" name="NKREDLFX">     1</i>
   <i type="int" name="NKREDLFY">     1</i>
   <i type="int" name="NKREDLFZ">     1</i>
   <i type="int" name="MAXMEM">  2800</i>
   <i type="int" name="TELESCOPE">     0</i>
   <i type="int" name="TAUPAR">     1</i>
   <i type="int" name="OMEGAPAR">    -1</i>
   <i name="LAMBDA">      1.00000000</i>
  </separator>
  <separator name="External order field" >
   <i name="OFIELD_KAPPA">      0.00000000</i>
   <v name="OFIELD_K">      0.00000000      0.00000000      0.00000000</v>
   <i name="OFIELD_Q6_NEAR">      0.00000000</i>
   <i name="OFIELD_Q6_FAR">      0.00000000</i>
   <i name="OFIELD_A">      0.00000000</i>
  </separator>
  <separator name="solvation model" >
   <i type="logical" name="LSOL"> F  </i>
  </separator>
 </parameters>
 <atominfo>
  <atoms>      78 </atoms>
  <types>       3 </types>
  <array name="atoms" >
   <dimension dim="1">ion</dimension>
   <field type="string">element</field>
   <field type="int">atomtype</field>
   <set>
    <rc><c>H </c><c>   1</c></rc>
    <rc><c>H </c><c>   1</c></rc>
    <rc><c>H </c><c>   1</c></rc>
    <rc><c>H </c><c>   1</c></rc>
    <rc><c>H </c><c>   1</c></rc>
    <rc><c>H </c><c>   1</c></rc>
    <rc><c>H </c><c>   1</c></rc>
    <rc><c>H </c><c>   1</c></rc>
    <rc><c>H </c><c>   1</c></rc>
    <rc><c>H </c><c>   1</c></rc>
    <rc><c>H </c><c>   1</c></rc>
    <rc><c>H </c><c>   1</c></rc>
    <rc><c>H </c><c>   1</c></rc>
    <rc><c>H </c><c>   1</c></rc>
    <rc><c>H </c><c>   1</c></rc>
    <rc><c>H </c><c>   1</c></rc>
    <rc><c>H </c><c>   1</c></rc>
    <rc><c>H </c><c>   1</c></rc>
    <rc><c>H </c><c>   1</c></rc>
    <rc><c>H </c><c>   1</c></rc>
    <rc><c>H </c><c>   1</c></rc>
    <rc><c>H </c><c>   1</c></rc>
    <rc><c>H </c><c>   1</c></rc>
    <rc><c>H </c><c>   1</c></rc>
    <rc><c>C </c><c>   2</c></rc>
    <rc><c>C </c><c>   2</c></rc>
    <rc><c>C </c><c>   2</c></rc>
    <rc><c>C </c><c>   2</c></rc>
    <rc><c>C </c><c>   2</c></rc>
    <rc><c>C </c><c>   2</c></rc>
    <rc><c>C </c><c>   2</c></rc>
    <rc><c>C </c><c>   2</c></rc>
    <rc><c>C </c><c>   2</c></rc>
    <rc><c>C </c><c>   2</c></rc>
    <rc><c>C </c><c>   2</c></rc>
    <rc><c>C </c><c>   2</c></rc>
    <rc><c>C </c><c>   2</c></rc>
    <rc><c>C </c><c>   2</c></rc>
    <rc><c>C </c><c>   2</c></rc>
    <rc><c>C </c><c>   2</c></rc>
    <rc><c>C </c><c>   2</c></rc>
    <rc><c>C </c><c>   2</c></rc>
    <rc><c>C </c><c>   2</c></rc>
    <rc><c>C </c><c>   2</c></rc>
    <rc><c>C </c><c>   2</c></rc>
    <rc><c>C </c><c>   2</c></rc>
    <rc><c>C </c><c>   2</c></rc>
    <rc><c>C </c><c>   2</c></rc>
    <rc><c>C </c><c>   2</c></rc>
    <rc><c>C </c><c>   2</c></rc>
    <rc><c>C </c><c>   2</c></rc>
    <rc><c>C </c><c>   2</c></rc>
    <rc><c>C </c><c>   2</c></rc>
    <rc><c>C </c><c>   2</c></rc>
    <rc><c>C </c><c>   2</c></rc>
    <rc><c>C </c><c>   2</c></rc>
    <rc><c>C </c><c>   2</c></rc>
    <rc><c>C </c><c>   2</c></rc>
    <rc><c>C </c><c>   2</c></rc>
    <rc><c>C </c><c>   2</c></rc>
    <rc><c>C </c><c>   2</c></rc>
    <rc><c>C </c><c>   2</c></rc>
    <rc><c>C </c><c>   2</c></rc>
    <rc><c>C </c><c>   2</c></rc>
    <rc><c>C </c><c>   2</c></rc>
    <rc><c>C </c><c>   2</c></rc>
    <rc><c>N </c><c>   3</c></rc>
    <rc><c>N </c><c>   3</c></rc>
    <rc><c>N </c><c>   3</c></rc>
    <rc><c>N </c><c>   3</c></rc>
    <rc><c>N </c><c>   3</c></rc>
    <rc><c>N </c><c>   3</c></rc>
    <rc><c>N </c><c>   3</c></rc>
    <rc><c>N </c><c>   3</c></rc>
    <rc><c>N </c><c>   3</c></rc>
    <rc><c>N </c><c>   3</c></rc>
    <rc><c>N </c><c>   3</c></rc>
    <rc><c>N </c><c>   3</c></rc>
   </set>
  </array>
  <array name="atomtypes" >
   <dimension dim="1">type</dimension>
   <field type="int">atomspertype</field>
   <field type="string">element</field>
   <field>mass</field>
   <field>valence</field>
   <field type="string">pseudopotential</field>
   <set>
    <rc><c>  24</c><c>H </c><c>      1.00000000</c><c>      1.00000000</c><c>  PAW_PBE H 15Jun2001                   </c></rc>
    <rc><c>  42</c><c>C </c><c>     12.01100000</c><c>      4.00000000</c><c>  PAW_PBE C 08Apr2002                   </c></rc>
    <rc><c>  12</c><c>N </c><c>     14.00100000</c><c>      5.00000000</c><c>  PAW_PBE N 08Apr2002                   </c></rc>
   </set>
  </array>
 </atominfo>
 <structure name="initialpos" >
  <crystal>
   <varray name="basis" >
    <v>      22.41063567      -0.00000004       0.00000000 </v>
    <v>     -11.20531780      19.40817983       0.00000000 </v>
    <v>       0.00000000       0.00000000      20.00000000 </v>
   </varray>
   <i name="volume">   8698.99293269 </i>
   <varray name="rec_basis" >
    <v>       0.04462167       0.02576233       0.00000000 </v>
    <v>       0.00000000       0.05152467       0.00000000 </v>
    <v>       0.00000000       0.00000000       0.05000000 </v>
   </varray>
  </crystal>
  <varray name="positions" >
   <v>       0.59098057       0.20568997       0.45445449 </v>
   <v>       0.61470941       0.40901943       0.45445449 </v>
   <v>       0.79431003       0.38529059       0.45445449 </v>
   <v>       0.80925399       0.49945222       0.44614059 </v>
   <v>       0.50054778       0.30980176       0.44614059 </v>
   <v>       0.69019824       0.19074601       0.44614059 </v>
   <v>       0.71210369       0.75960934       0.34284639 </v>
   <v>       0.63072460       0.63069535       0.34202015 </v>
   <v>       0.36930465       0.00002924       0.34202015 </v>
   <v>       0.73795170       0.14963663       0.52836319 </v>
   <v>       0.78685991       0.07186441       0.53258508 </v>
   <v>       0.41168493       0.26204830       0.52836319 </v>
   <v>       0.08974000       0.12428321       0.48126454 </v>
   <v>       0.03454321       0.91026000       0.48126454 </v>
   <v>       0.87571679       0.96545679       0.48126454 </v>
   <v>       0.84243034       0.84575250       0.48460303 </v>
   <v>       0.15424750       0.99667784       0.48460303 </v>
   <v>       0.00332216       0.15756966       0.48460303 </v>
   <v>       0.04750565       0.28789631       0.34284639 </v>
   <v>       0.99997076       0.36927540       0.34202015 </v>
   <v>       0.85036337       0.58831507       0.52836319 </v>
   <v>       0.92813559       0.71499551       0.53258508 </v>
   <v>       0.24039066       0.95249435       0.34284639 </v>
   <v>       0.28500449       0.21314009       0.53258508 </v>
   <v>       0.70904855       0.40545535       0.45543359 </v>
   <v>       0.73844960       0.36323008       0.45526516 </v>
   <v>       0.69640680       0.29095145       0.45543359 </v>
   <v>       0.62478048       0.26155040       0.45526516 </v>
   <v>       0.59454465       0.30359320       0.45543359 </v>
   <v>       0.63676992       0.37521952       0.45526516 </v>
   <v>       0.72658122       0.24622490       0.45463334 </v>
   <v>       0.51964368       0.27341878       0.45463334 </v>
   <v>       0.75377510       0.48035632       0.45463334 </v>
   <v>       0.77477507       0.59223730       0.46538798 </v>
   <v>       0.75551720       0.63736352       0.43302038 </v>
   <v>       0.80017197       0.71093201       0.43665919 </v>
   <v>       0.72484066       0.72507026       0.37008516 </v>
   <v>       0.67986360       0.65286280       0.36878004 </v>
   <v>       0.81746224       0.22522493       0.46538798 </v>
   <v>       0.40776270       0.18253776       0.46538798 </v>
   <v>       0.36263648       0.11815368       0.43302038 </v>
   <v>       0.34713720       0.02700079       0.36878004 </v>
   <v>       0.81355239       0.12018351       0.50486197 </v>
   <v>       0.78550643       0.16362855       0.50142241 </v>
   <v>       0.37812212       0.21449357       0.50142241 </v>
   <v>       0.94944073       0.92962233       0.48122793 </v>
   <v>       0.93004308       0.97997921       0.48121556 </v>
   <v>       0.98018160       0.05055927       0.48122793 </v>
   <v>       0.04993613       0.06995692       0.48121556 </v>
   <v>       0.07037767       0.01981840       0.48122793 </v>
   <v>       0.02002079       0.95006387       0.48121556 </v>
   <v>       0.96076729       0.10400910       0.48137878 </v>
   <v>       0.14324181       0.03923271       0.48137878 </v>
   <v>       0.89599090       0.85675819       0.48137878 </v>
   <v>       0.88184632       0.24448280       0.43302038 </v>
   <v>       0.91076004       0.19982803       0.43665919 </v>
   <v>       0.00022960       0.27515934       0.37008516 </v>
   <v>       0.97299921       0.32013640       0.36878004 </v>
   <v>       0.86364114       0.73941557       0.47418670 </v>
   <v>       0.87981649       0.69336889       0.50486197 </v>
   <v>       0.83637145       0.62187788       0.50142241 </v>
   <v>       0.87577443       0.13635886       0.47418670 </v>
   <v>       0.28906799       0.08923996       0.43665919 </v>
   <v>       0.27492974       0.99977040       0.37008516 </v>
   <v>       0.26058443       0.12422557       0.47418670 </v>
   <v>       0.30663111       0.18644761       0.50486197 </v>
   <v>       0.78376943       0.75359552       0.40318057 </v>
   <v>       0.69514419       0.60955286       0.39850499 </v>
   <v>       0.73013610       0.52167829       0.46224429 </v>
   <v>       0.79154220       0.26986390       0.46224429 </v>
   <v>       0.39044714       0.08559133       0.39850499 </v>
   <v>       0.47832171       0.20845780       0.46224429 </v>
   <v>       0.96982610       0.21623057       0.40318057 </v>
   <v>       0.91440867       0.30485581       0.39850499 </v>
   <v>       0.91177384       0.80888939       0.47872071 </v>
   <v>       0.89711555       0.08822616       0.47872071 </v>
   <v>       0.24640448       0.03017390       0.40318057 </v>
   <v>       0.19111061       0.10288445       0.47872071 </v>
  </varray>
 </structure>
 <calculation>
  <scstep>
   <time name="dav">  121.88  122.99</time>
   <time name="total">  122.05  123.17</time>
   <energy>
    <i name="alphaZ">     34.17164752 </i>
    <i name="ewald">  26381.72439039 </i>
    <i name="hartreedc"> -34307.40283316 </i>
    <i name="XCdc">    883.88816206 </i>
    <i name="pawpsdc">  23823.52843620 </i>
    <i name="pawaedc"> -23869.55582870 </i>
    <i name="eentropy">     -0.00000000 </i>
    <i name="bandstr">  -3160.93245592 </i>
    <i name="atom">   9654.32622085 </i>
    <i name="e_fr_energy">   -560.25226076 </i>
    <i name="e_wo_entrp">   -560.25226076 </i>
    <i name="e_0_energy">   -560.25226076 </i>
   </energy>
  </scstep>
  <scstep>
   <time name="dav">  137.43  138.66</time>
   <time name="total">  137.44  138.67</time>
   <energy>
    <i name="e_fr_energy">   -560.84585768 </i>
    <i name="e_wo_entrp">   -560.84585768 </i>
    <i name="e_0_energy">   -560.84585768 </i>
   </energy>
  </scstep>
  <scstep>
   <time name="dav">  152.74  154.09</time>
   <time name="total">  152.74  154.09</time>
   <energy>
    <i name="e_fr_energy">   -560.86133316 </i>
    <i name="e_wo_entrp">   -560.86133316 </i>
    <i name="e_0_energy">   -560.86133316 </i>
   </energy>
  </scstep>
  <scstep>
   <time name="dav">  135.90  137.12</time>
   <time name="total">  135.91  137.13</time>
   <energy>
    <i name="e_fr_energy">   -560.86159927 </i>
    <i name="e_wo_entrp">   -560.86159927 </i>
    <i name="e_0_energy">   -560.86159927 </i>
   </energy>
  </scstep>
  <scstep>
   <time name="dav">  135.70  136.91</time>
   <time name="total">  135.71  136.92</time>
   <energy>
    <i name="e_fr_energy">   -560.86161147 </i>
    <i name="e_wo_entrp">   -560.86161147 </i>
    <i name="e_0_energy">   -560.86161147 </i>
   </energy>
  </scstep>
  <scstep>
   <time name="dav">  109.35  110.34</time>
   <time name="total">  109.36  110.35</time>
   <energy>
    <i name="alphaZ">     34.17164752 </i>
    <i name="ewald">  26381.72439039 </i>
    <i name="hartreedc"> -34307.40283316 </i>
    <i name="XCdc">    883.88816206 </i>
    <i name="pawpsdc">  23823.52843620 </i>
    <i name="pawaedc"> -23869.55582870 </i>
    <i name="eentropy">     -0.00000000 </i>
    <i name="bandstr">  -3161.54180707 </i>
    <i name="atom">   9654.32622085 </i>
    <i name="e_fr_energy">   -560.86161191 </i>
    <i name="e_wo_entrp">   -560.86161191 </i>
    <i name="e_0_energy">   -560.86161191 </i>
   </energy>
  </scstep>
  <structure>
   <crystal>
    <varray name="basis" >
     <v>      22.41063567      -0.00000004       0.00000000 </v>
     <v>     -11.20531780      19.40817983       0.00000000 </v>
     <v>       0.00000000       0.00000000      20.00000000 </v>
    </varray>
    <i name="volume">   8698.99293269 </i>
    <varray name="rec_basis" >
     <v>       0.04462167       0.02576233       0.00000000 </v>
     <v>       0.00000000       0.05152467       0.00000000 </v>
     <v>       0.00000000       0.00000000       0.05000000 </v>
    </varray>
   </crystal>
   <varray name="positions" >
    <v>       0.59098057       0.20568997       0.45445449 </v>
    <v>       0.61470941       0.40901943       0.45445449 </v>
    <v>       0.79431003       0.38529059       0.45445449 </v>
    <v>       0.80925399       0.49945222       0.44614059 </v>
    <v>       0.50054778       0.30980176       0.44614059 </v>
    <v>       0.69019824       0.19074601       0.44614059 </v>
    <v>       0.71210369       0.75960934       0.34284639 </v>
    <v>       0.63072460       0.63069535       0.34202015 </v>
    <v>       0.36930465       0.00002924       0.34202015 </v>
    <v>       0.73795170       0.14963663       0.52836319 </v>
    <v>       0.78685991       0.07186441       0.53258508 </v>
    <v>       0.41168493       0.26204830       0.52836319 </v>
    <v>       0.08974000       0.12428321       0.48126454 </v>
    <v>       0.03454321       0.91026000       0.48126454 </v>
    <v>       0.87571679       0.96545679       0.48126454 </v>
    <v>       0.84243034       0.84575250       0.48460303 </v>
    <v>       0.15424750       0.99667784       0.48460303 </v>
    <v>       0.00332216       0.15756966       0.48460303 </v>
    <v>       0.04750565       0.28789631       0.34284639 </v>
    <v>       0.99997076       0.36927540       0.34202015 </v>
    <v>       0.85036337       0.58831507       0.52836319 </v>
    <v>       0.92813559       0.71499551       0.53258508 </v>
    <v>       0.24039066       0.95249435       0.34284639 </v>
    <v>       0.28500449       0.21314009       0.53258508 </v>
    <v>       0.70904855       0.40545535       0.45543359 </v>
    <v>       0.73844960       0.36323008       0.45526516 </v>
    <v>       0.69640680       0.29095145       0.45543359 </v>
    <v>       0.62478048       0.26155040       0.45526516 </v>
    <v>       0.59454465       0.30359320       0.45543359 </v>
    <v>       0.63676992       0.37521952       0.45526516 </v>
    <v>       0.72658122       0.24622490       0.45463334 </v>
    <v>       0.51964368       0.27341878       0.45463334 </v>
    <v>       0.75377510       0.48035632       0.45463334 </v>
    <v>       0.77477507       0.59223730       0.46538798 </v>
    <v>       0.75551720       0.63736352       0.43302038 </v>
    <v>       0.80017197       0.71093201       0.43665919 </v>
    <v>       0.72484066       0.72507026       0.37008516 </v>
    <v>       0.67986360       0.65286280       0.36878004 </v>
    <v>       0.81746224       0.22522493       0.46538798 </v>
    <v>       0.40776270       0.18253776       0.46538798 </v>
    <v>       0.36263648       0.11815368       0.43302038 </v>
    <v>       0.34713720       0.02700079       0.36878004 </v>
    <v>       0.81355239       0.12018351       0.50486197 </v>
    <v>       0.78550643       0.16362855       0.50142241 </v>
    <v>       0.37812212       0.21449357       0.50142241 </v>
    <v>       0.94944073       0.92962233       0.48122793 </v>
    <v>       0.93004308       0.97997921       0.48121556 </v>
    <v>       0.98018160       0.05055927       0.48122793 </v>
    <v>       0.04993613       0.06995692       0.48121556 </v>
    <v>       0.07037767       0.01981840       0.48122793 </v>
    <v>       0.02002079       0.95006387       0.48121556 </v>
    <v>       0.96076729       0.10400910       0.48137878 </v>
    <v>       0.14324181       0.03923271       0.48137878 </v>
    <v>       0.89599090       0.85675819       0.48137878 </v>
    <v>       0.88184632       0.24448280       0.43302038 </v>
    <v>       0.91076004       0.19982803       0.43665919 </v>
    <v>       0.00022960       0.27515934       0.37008516 </v>
    <v>       0.97299921       0.32013640       0.36878004 </v>
    <v>       0.86364114       0.73941557       0.47418670 </v>
    <v>       0.87981649       0.69336889       0.50486197 </v>
    <v>       0.83637145       0.62187788       0.50142241 </v>
    <v>       0.87577443       0.13635886       0.47418670 </v>
    <v>       0.28906799       0.08923996       0.43665919 </v>
    <v>       0.27492974       0.99977040       0.37008516 </v>
    <v>       0.26058443       0.12422557       0.47418670 </v>
    <v>       0.30663111       0.18644761       0.50486197 </v>
    <v>       0.78376943       0.75359552       0.40318057 </v>
    <v>       0.69514419       0.60955286       0.39850499 </v>
    <v>       0.73013610       0.52167829       0.46224429 </v>
    <v>       0.79154220       0.26986390       0.46224429 </v>
    <v>       0.39044714       0.08559133       0.39850499 </v>
    <v>       0.47832171       0.20845780       0.46224429 </v>
    <v>       0.96982610       0.21623057       0.40318057 </v>
    <v>       0.91440867       0.30485581       0.39850499 </v>
    <v>       0.91177384       0.80888939       0.47872071 </v>
    <v>       0.89711555       0.08822616       0.47872071 </v>
    <v>       0.24640448       0.03017390       0.40318057 </v>
    <v>       0.19111061       0.10288445       0.47872071 </v>
   </varray>
  </structure>
  <varray name="forces" >
   <v>       0.00433166       0.00198083      -0.00027336 </v>
   <v>      -0.00045039      -0.00474174      -0.00027336 </v>
   <v>      -0.00388128       0.00276092      -0.00027336 </v>
   <v>      -0.00010358      -0.00137568      -0.00019023 </v>
   <v>       0.00124316       0.00059814      -0.00019023 </v>
   <v>      -0.00113958       0.00077754      -0.00019023 </v>
   <v>       0.00554425      -0.00224280      -0.00282836 </v>
   <v>       0.00676966       0.00024056      -0.00613402 </v>
   <v>      -0.00359316       0.00574242      -0.00613402 </v>
   <v>      -0.00313660       0.00231412       0.00333720 </v>
   <v>      -0.00224193       0.00405671       0.00274460 </v>
   <v>       0.00357239       0.00155931       0.00333720 </v>
   <v>       0.00168385      -0.00034834       0.00118111 </v>
   <v>      -0.00114360      -0.00128409       0.00118111 </v>
   <v>      -0.00054025       0.00163243       0.00118111 </v>
   <v>      -0.00421511       0.00314793       0.00157862 </v>
   <v>      -0.00061864      -0.00522435       0.00157862 </v>
   <v>       0.00483374       0.00207642       0.00157862 </v>
   <v>      -0.00471445      -0.00368006      -0.00282836 </v>
   <v>      -0.00317650      -0.00598298      -0.00613402 </v>
   <v>      -0.00043579      -0.00387343       0.00333720 </v>
   <v>      -0.00239225      -0.00396992       0.00274460 </v>
   <v>      -0.00082980       0.00592286      -0.00282836 </v>
   <v>       0.00463418      -0.00008679       0.00274460 </v>
   <v>      -0.00090036       0.00269859      -0.00001102 </v>
   <v>       0.00423718       0.00208500       0.00096619 </v>
   <v>       0.00278723      -0.00056956      -0.00001102 </v>
   <v>      -0.00031293      -0.00471200       0.00096619 </v>
   <v>      -0.00188687      -0.00212903      -0.00001102 </v>
   <v>      -0.00392425       0.00262700       0.00096619 </v>
   <v>      -0.00244366       0.00194391      -0.00030050 </v>
   <v>       0.00290530       0.00114431      -0.00030050 </v>
   <v>      -0.00046165      -0.00308822      -0.00030050 </v>
   <v>       0.00173922      -0.00052135      -0.00065642 </v>
   <v>       0.00187957       0.00009455       0.00270811 </v>
   <v>      -0.00253455      -0.00783351      -0.00181489 </v>
   <v>       0.00061213      -0.00213022      -0.00167156 </v>
   <v>      -0.00233709      -0.00014183      -0.00574058 </v>
   <v>      -0.00132111      -0.00124553      -0.00065642 </v>
   <v>      -0.00041810       0.00176688      -0.00065642 </v>
   <v>      -0.00102167       0.00158049       0.00270811 </v>
   <v>       0.00129137      -0.00195307      -0.00574058 </v>
   <v>       0.00023651       0.00177371      -0.00058700 </v>
   <v>       0.00056508       0.00517883      -0.00155529 </v>
   <v>       0.00420246      -0.00307879      -0.00155529 </v>
   <v>      -0.00088223      -0.00249207       0.00308343 </v>
   <v>      -0.00286539       0.00432998       0.00230304 </v>
   <v>      -0.00171708       0.00201007       0.00308343 </v>
   <v>       0.00518257       0.00031651       0.00230304 </v>
   <v>       0.00259931       0.00048200       0.00308343 </v>
   <v>      -0.00231718      -0.00464649       0.00230304 </v>
   <v>      -0.00203995      -0.00358270       0.00091140 </v>
   <v>      -0.00208274       0.00355799       0.00091140 </v>
   <v>       0.00412268       0.00002471       0.00091140 </v>
   <v>      -0.00085791      -0.00167503       0.00270811 </v>
   <v>      -0.00551674       0.00611174      -0.00181489 </v>
   <v>      -0.00215089       0.00053499      -0.00167156 </v>
   <v>       0.00104572       0.00209489      -0.00574058 </v>
   <v>       0.00350723       0.00337992       0.00093275 </v>
   <v>      -0.00165433      -0.00068203      -0.00058700 </v>
   <v>      -0.00476754      -0.00210004      -0.00155529 </v>
   <v>       0.00117348      -0.00472731       0.00093275 </v>
   <v>       0.00805129       0.00172177      -0.00181489 </v>
   <v>       0.00153876       0.00159523      -0.00167156 </v>
   <v>      -0.00468071       0.00134739       0.00093275 </v>
   <v>       0.00141782      -0.00109167      -0.00058700 </v>
   <v>       0.00371360       0.00271009       0.00272065 </v>
   <v>      -0.00061454      -0.00227083       0.00453476 </v>
   <v>      -0.00116641      -0.00345720      -0.00274485 </v>
   <v>      -0.00241081       0.00273874      -0.00274485 </v>
   <v>       0.00227387       0.00060321       0.00453476 </v>
   <v>       0.00357723       0.00071845      -0.00274485 </v>
   <v>       0.00049021      -0.00457112       0.00272065 </v>
   <v>      -0.00165933       0.00166762       0.00453476 </v>
   <v>      -0.00386736       0.00197106      -0.00249380 </v>
   <v>       0.00364067       0.00236370      -0.00249380 </v>
   <v>      -0.00420381       0.00186102       0.00272065 </v>
   <v>       0.00022669      -0.00433476      -0.00249380 </v>
  </varray>
  <varray name="stress" >
   <v>       0.00165634       0.00000000      -0.00000000 </v>
   <v>      -0.00000000       0.00165634      -0.00000000 </v>
   <v>      -0.00000000      -0.00000000      -0.15857738 </v>
  </varray>
  <energy>
   <i name="e_fr_energy">   -562.29249635 </i>
   <i name="e_wo_entrp">   -562.29249635 </i>
   <i name="e_0_energy">     -0.00000000 </i>
  </energy>
  <time name="totalsc">  904.67  913.07</time>
  <eigenvalues>
   <array>
    <dimension dim="1">band</dimension>
    <dimension dim="2">kpoint</dimension>
    <dimension dim="3">spin</dimension>
    <field>eigene</field>
    <field>occ</field>
    <set>
     <set comment="spin 1">
      <set comment="kpoint 1">
       <r>  -24.2572    1.0000 </r>
       <r>  -24.2564    1.0000 </r>
       <r>  -24.2559    1.0000 </r>
       <r>  -23.2860    1.0000 </r>
       <r>  -23.2446    1.0000 </r>
       <r>  -23.2440    1.0000 </r>
       <r>  -23.0873    1.0000 </r>
       <r>  -23.0434    1.0000 </r>
       <r>  -23.0425    1.0000 </r>
       <r>  -22.2559    1.0000 </r>
       <r>  -22.2288    1.0000 </r>
       <r>  -22.2283    1.0000 </r>
       <r>  -21.4521    1.0000 </r>
       <r>  -21.2882    1.0000 </r>
       <r>  -20.6416    1.0000 </r>
       <r>  -20.6415    1.0000 </r>
       <r>  -20.3917    1.0000 </r>
       <r>  -19.3367    1.0000 </r>
       <r>  -19.3367    1.0000 </r>
       <r>  -18.8827    1.0000 </r>
       <r>  -18.8827    1.0000 </r>
       <r>  -18.6508    1.0000 </r>
       <r>  -18.6319    1.0000 </r>
       <r>  -18.6317    1.0000 </r>
       <r>  -18.2384    1.0000 </r>
       <r>  -17.7848    1.0000 </r>
       <r>  -17.7847    1.0000 </r>
       <r>  -16.6081    1.0000 </r>
       <r>  -16.4972    1.0000 </r>
       <r>  -16.4971    1.0000 </r>
       <r>  -16.0894    1.0000 </r>
       <r>  -16.0891    1.0000 </r>
       <r>  -16.0756    1.0000 </r>
       <r>  -15.9547    1.0000 </r>
       <r>  -15.9544    1.0000 </r>
       <r>  -15.8755    1.0000 </r>
       <r>  -15.5431    1.0000 </r>
       <r>  -15.5431    1.0000 </r>
       <r>  -15.1330    1.0000 </r>
       <r>  -14.5794    1.0000 </r>
       <r>  -14.5793    1.0000 </r>
       <r>  -13.9364    1.0000 </r>
       <r>  -13.6595    1.0000 </r>
       <r>  -13.6595    1.0000 </r>
       <r>  -13.2691    1.0000 </r>
       <r>  -13.2689    1.0000 </r>
       <r>  -13.1485    1.0000 </r>
       <r>  -13.0371    1.0000 </r>
       <r>  -12.8248    1.0000 </r>
       <r>  -12.8246    1.0000 </r>
       <r>  -12.7069    1.0000 </r>
       <r>  -12.5570    1.0000 </r>
       <r>  -12.5567    1.0000 </r>
       <r>  -12.4981    1.0000 </r>
       <r>  -12.1376    1.0000 </r>
       <r>  -12.1140    1.0000 </r>
       <r>  -12.1138    1.0000 </r>
       <r>  -12.0070    1.0000 </r>
       <r>  -11.6651    1.0000 </r>
       <r>  -11.6650    1.0000 </r>
       <r>  -11.4785    1.0000 </r>
       <r>  -11.2812    1.0000 </r>
       <r>  -11.2811    1.0000 </r>
       <r>  -11.1691    1.0000 </r>
       <r>  -11.0526    1.0000 </r>
       <r>  -10.7358    1.0000 </r>
       <r>  -10.7357    1.0000 </r>
       <r>  -10.6909    1.0000 </r>
       <r>  -10.6401    1.0000 </r>
       <r>  -10.6398    1.0000 </r>
       <r>  -10.3868    1.0000 </r>
       <r>  -10.3111    1.0000 </r>
       <r>  -10.2833    1.0000 </r>
       <r>  -10.2832    1.0000 </r>
       <r>  -10.1385    1.0000 </r>
       <r>  -10.1384    1.0000 </r>
       <r>  -10.0327    1.0000 </r>
       <r>  -10.0027    1.0000 </r>
       <r>   -9.8654    1.0000 </r>
       <r>   -9.8653    1.0000 </r>
       <r>   -9.7530    1.0000 </r>
       <r>   -9.6134    1.0000 </r>
       <r>   -9.5541    1.0000 </r>
       <r>   -9.5540    1.0000 </r>
       <r>   -9.3610    1.0000 </r>
       <r>   -9.1624    1.0000 </r>
       <r>   -9.1622    1.0000 </r>
       <r>   -8.9939    1.0000 </r>
       <r>   -8.9938    1.0000 </r>
       <r>   -8.7697    1.0000 </r>
       <r>   -8.6946    1.0000 </r>
       <r>   -8.6116    1.0000 </r>
       <r>   -8.6116    1.0000 </r>
       <r>   -8.3988    1.0000 </r>
       <r>   -8.2970    1.0000 </r>
       <r>   -8.2968    1.0000 </r>
       <r>   -8.1518    1.0000 </r>
       <r>   -8.1516    1.0000 </r>
       <r>   -8.0743    1.0000 </r>
       <r>   -8.0740    1.0000 </r>
       <r>   -7.9995    1.0000 </r>
       <r>   -7.9992    1.0000 </r>
       <r>   -7.6829    1.0000 </r>
       <r>   -7.1413    1.0000 </r>
       <r>   -6.8958    1.0000 </r>
       <r>   -6.8957    1.0000 </r>
       <r>   -6.8179    1.0000 </r>
       <r>   -6.7938    1.0000 </r>
       <r>   -6.7933    1.0000 </r>
       <r>   -6.3813    1.0000 </r>
       <r>   -6.3211    1.0000 </r>
       <r>   -6.3209    1.0000 </r>
       <r>   -6.2828    1.0000 </r>
       <r>   -6.0682    1.0000 </r>
       <r>   -6.0681    1.0000 </r>
       <r>   -5.9491    1.0000 </r>
       <r>   -5.9455    1.0000 </r>
       <r>   -5.9452    1.0000 </r>
       <r>   -5.8157    1.0000 </r>
       <r>   -5.8155    1.0000 </r>
       <r>   -5.3551    1.0000 </r>
       <r>   -5.2622    1.0000 </r>
       <r>   -5.2619    1.0000 </r>
       <r>   -4.7236    1.0000 </r>
       <r>   -4.6346    1.0000 </r>
       <r>   -4.6345    1.0000 </r>
       <r>   -2.8691    0.0000 </r>
       <r>   -2.8690    0.0000 </r>
       <r>   -2.7141    0.0000 </r>
       <r>   -2.2892    0.0000 </r>
       <r>   -2.2890    0.0000 </r>
       <r>   -2.1935    0.0000 </r>
       <r>   -2.1932    0.0000 </r>
       <r>   -1.9080    0.0000 </r>
       <r>   -1.5246    0.0000 </r>
       <r>   -1.3878    0.0000 </r>
       <r>   -1.3876    0.0000 </r>
       <r>   -1.3381    0.0000 </r>
       <r>   -0.2648    0.0000 </r>
       <r>   -0.2647    0.0000 </r>
       <r>   -0.1615    0.0000 </r>
       <r>    0.0699    0.0000 </r>
       <r>    0.0705    0.0000 </r>
       <r>    0.1270    0.0000 </r>
       <r>    0.1274    0.0000 </r>
       <r>    0.1529    0.0000 </r>
       <r>    0.2428    0.0000 </r>
       <r>    0.3164    0.0000 </r>
       <r>    0.3167    0.0000 </r>
       <r>    0.3916    0.0000 </r>
       <r>    0.5224    0.0000 </r>
       <r>    0.5687    0.0000 </r>
       <r>    0.5690    0.0000 </r>
       <r>    0.6406    0.0000 </r>
       <r>    0.6883    0.0000 </r>
       <r>    0.6998    0.0000 </r>
       <r>    0.7000    0.0000 </r>
       <r>    0.7701    0.0000 </r>
       <r>    0.7799    0.0000 </r>
       <r>    0.7803    0.0000 </r>
       <r>    0.8738    0.0000 </r>
       <r>    0.9118    0.0000 </r>
       <r>    0.9119    0.0000 </r>
       <r>    0.9584    0.0000 </r>
       <r>    0.9924    0.0000 </r>
       <r>    0.9930    0.0000 </r>
       <r>    1.0343    0.0000 </r>
       <r>    1.0511    0.0000 </r>
       <r>    1.0515    0.0000 </r>
       <r>    1.1064    0.0000 </r>
       <r>    1.1183    0.0000 </r>
       <r>    1.1184    0.0000 </r>
       <r>    1.1501    0.0000 </r>
       <r>    1.1773    0.0000 </r>
       <r>    1.1775    0.0000 </r>
       <r>    1.2131    0.0000 </r>
      </set>
      <set comment="kpoint 2">
       <r>  -24.2572    1.0000 </r>
       <r>  -24.2564    1.0000 </r>
       <r>  -24.2559    1.0000 </r>
       <r>  -23.2860    1.0000 </r>
       <r>  -23.2446    1.0000 </r>
       <r>  -23.2440    1.0000 </r>
       <r>  -23.0872    1.0000 </r>
       <r>  -23.0434    1.0000 </r>
       <r>  -23.0425    1.0000 </r>
       <r>  -22.2559    1.0000 </r>
       <r>  -22.2288    1.0000 </r>
       <r>  -22.2283    1.0000 </r>
       <r>  -21.4520    1.0000 </r>
       <r>  -21.2884    1.0000 </r>
       <r>  -20.6416    1.0000 </r>
       <r>  -20.6412    1.0000 </r>
       <r>  -20.3921    1.0000 </r>
       <r>  -19.3367    1.0000 </r>
       <r>  -19.3361    1.0000 </r>
       <r>  -18.8837    1.0000 </r>
       <r>  -18.8827    1.0000 </r>
       <r>  -18.6507    1.0000 </r>
       <r>  -18.6319    1.0000 </r>
       <r>  -18.6317    1.0000 </r>
       <r>  -18.2374    1.0000 </r>
       <r>  -17.7853    1.0000 </r>
       <r>  -17.7848    1.0000 </r>
       <r>  -16.6078    1.0000 </r>
       <r>  -16.4973    1.0000 </r>
       <r>  -16.4971    1.0000 </r>
       <r>  -16.0894    1.0000 </r>
       <r>  -16.0891    1.0000 </r>
       <r>  -16.0756    1.0000 </r>
       <r>  -15.9547    1.0000 </r>
       <r>  -15.9545    1.0000 </r>
       <r>  -15.8755    1.0000 </r>
       <r>  -15.5430    1.0000 </r>
       <r>  -15.5427    1.0000 </r>
       <r>  -15.1339    1.0000 </r>
       <r>  -14.5794    1.0000 </r>
       <r>  -14.5782    1.0000 </r>
       <r>  -13.9381    1.0000 </r>
       <r>  -13.6594    1.0000 </r>
       <r>  -13.6581    1.0000 </r>
       <r>  -13.2694    1.0000 </r>
       <r>  -13.2690    1.0000 </r>
       <r>  -13.1485    1.0000 </r>
       <r>  -13.0369    1.0000 </r>
       <r>  -12.8248    1.0000 </r>
       <r>  -12.8246    1.0000 </r>
       <r>  -12.7067    1.0000 </r>
       <r>  -12.5572    1.0000 </r>
       <r>  -12.5570    1.0000 </r>
       <r>  -12.4982    1.0000 </r>
       <r>  -12.1389    1.0000 </r>
       <r>  -12.1138    1.0000 </r>
       <r>  -12.1121    1.0000 </r>
       <r>  -12.0068    1.0000 </r>
       <r>  -11.6661    1.0000 </r>
       <r>  -11.6650    1.0000 </r>
       <r>  -11.4776    1.0000 </r>
       <r>  -11.2814    1.0000 </r>
       <r>  -11.2811    1.0000 </r>
       <r>  -11.1689    1.0000 </r>
       <r>  -11.0527    1.0000 </r>
       <r>  -10.7360    1.0000 </r>
       <r>  -10.7357    1.0000 </r>
       <r>  -10.6907    1.0000 </r>
       <r>  -10.6400    1.0000 </r>
       <r>  -10.6397    1.0000 </r>
       <r>  -10.3877    1.0000 </r>
       <r>  -10.3125    1.0000 </r>
       <r>  -10.2832    1.0000 </r>
       <r>  -10.2810    1.0000 </r>
       <r>  -10.1385    1.0000 </r>
       <r>  -10.1385    1.0000 </r>
       <r>  -10.0328    1.0000 </r>
       <r>  -10.0026    1.0000 </r>
       <r>   -9.8655    1.0000 </r>
       <r>   -9.8653    1.0000 </r>
       <r>   -9.7529    1.0000 </r>
       <r>   -9.6137    1.0000 </r>
       <r>   -9.5540    1.0000 </r>
       <r>   -9.5537    1.0000 </r>
       <r>   -9.3613    1.0000 </r>
       <r>   -9.1623    1.0000 </r>
       <r>   -9.1619    1.0000 </r>
       <r>   -8.9940    1.0000 </r>
       <r>   -8.9939    1.0000 </r>
       <r>   -8.7699    1.0000 </r>
       <r>   -8.6947    1.0000 </r>
       <r>   -8.6116    1.0000 </r>
       <r>   -8.6114    1.0000 </r>
       <r>   -8.3993    1.0000 </r>
       <r>   -8.2969    1.0000 </r>
       <r>   -8.2966    1.0000 </r>
       <r>   -8.1518    1.0000 </r>
       <r>   -8.1516    1.0000 </r>
       <r>   -8.0743    1.0000 </r>
       <r>   -8.0740    1.0000 </r>
       <r>   -7.9995    1.0000 </r>
       <r>   -7.9993    1.0000 </r>
       <r>   -7.6823    1.0000 </r>
       <r>   -7.1433    1.0000 </r>
       <r>   -6.8957    1.0000 </r>
       <r>   -6.8938    1.0000 </r>
       <r>   -6.8178    1.0000 </r>
       <r>   -6.7937    1.0000 </r>
       <r>   -6.7933    1.0000 </r>
       <r>   -6.3817    1.0000 </r>
       <r>   -6.3211    1.0000 </r>
       <r>   -6.3209    1.0000 </r>
       <r>   -6.2831    1.0000 </r>
       <r>   -6.0681    1.0000 </r>
       <r>   -6.0680    1.0000 </r>
       <r>   -5.9515    1.0000 </r>
       <r>   -5.9454    1.0000 </r>
       <r>   -5.9429    1.0000 </r>
       <r>   -5.8157    1.0000 </r>
       <r>   -5.8156    1.0000 </r>
       <r>   -5.3550    1.0000 </r>
       <r>   -5.2622    1.0000 </r>
       <r>   -5.2619    1.0000 </r>
       <r>   -4.7234    1.0000 </r>
       <r>   -4.6347    1.0000 </r>
       <r>   -4.6345    1.0000 </r>
       <r>   -2.8690    0.0000 </r>
       <r>   -2.8688    0.0000 </r>
       <r>   -2.7144    0.0000 </r>
       <r>   -2.2892    0.0000 </r>
       <r>   -2.2890    0.0000 </r>
       <r>   -2.1936    0.0000 </r>
       <r>   -2.1933    0.0000 </r>
       <r>   -1.9073    0.0000 </r>
       <r>   -1.5251    0.0000 </r>
       <r>   -1.3878    0.0000 </r>
       <r>   -1.3876    0.0000 </r>
       <r>   -1.3384    0.0000 </r>
       <r>   -0.2648    0.0000 </r>
       <r>   -0.2641    0.0000 </r>
       <r>   -0.1612    0.0000 </r>
       <r>    0.0688    0.0000 </r>
       <r>    0.0696    0.0000 </r>
       <r>    0.1245    0.0000 </r>
       <r>    0.1281    0.0000 </r>
       <r>    0.1565    0.0000 </r>
       <r>    0.2431    0.0000 </r>
       <r>    0.3147    0.0000 </r>
       <r>    0.3167    0.0000 </r>
       <r>    0.3933    0.0000 </r>
       <r>    0.5226    0.0000 </r>
       <r>    0.5679    0.0000 </r>
       <r>    0.5685    0.0000 </r>
       <r>    0.6408    0.0000 </r>
       <r>    0.6865    0.0000 </r>
       <r>    0.6991    0.0000 </r>
       <r>    0.7018    0.0000 </r>
       <r>    0.7663    0.0000 </r>
       <r>    0.7800    0.0000 </r>
       <r>    0.7852    0.0000 </r>
       <r>    0.8736    0.0000 </r>
       <r>    0.9116    0.0000 </r>
       <r>    0.9121    0.0000 </r>
       <r>    0.9581    0.0000 </r>
       <r>    0.9904    0.0000 </r>
       <r>    0.9920    0.0000 </r>
       <r>    1.0325    0.0000 </r>
       <r>    1.0524    0.0000 </r>
       <r>    1.0539    0.0000 </r>
       <r>    1.1035    0.0000 </r>
       <r>    1.1183    0.0000 </r>
       <r>    1.1231    0.0000 </r>
       <r>    1.1504    0.0000 </r>
       <r>    1.1765    0.0000 </r>
       <r>    1.1784    0.0000 </r>
       <r>    1.2152    0.0000 </r>
      </set>
      <set comment="kpoint 3">
       <r>  -24.2572    1.0000 </r>
       <r>  -24.2564    1.0000 </r>
       <r>  -24.2559    1.0000 </r>
       <r>  -23.2860    1.0000 </r>
       <r>  -23.2446    1.0000 </r>
       <r>  -23.2440    1.0000 </r>
       <r>  -23.0872    1.0000 </r>
       <r>  -23.0435    1.0000 </r>
       <r>  -23.0425    1.0000 </r>
       <r>  -22.2558    1.0000 </r>
       <r>  -22.2288    1.0000 </r>
       <r>  -22.2284    1.0000 </r>
       <r>  -21.4516    1.0000 </r>
       <r>  -21.2889    1.0000 </r>
       <r>  -20.6416    1.0000 </r>
       <r>  -20.6400    1.0000 </r>
       <r>  -20.3933    1.0000 </r>
       <r>  -19.3367    1.0000 </r>
       <r>  -19.3344    1.0000 </r>
       <r>  -18.8866    1.0000 </r>
       <r>  -18.8827    1.0000 </r>
       <r>  -18.6505    1.0000 </r>
       <r>  -18.6319    1.0000 </r>
       <r>  -18.6317    1.0000 </r>
       <r>  -18.2346    1.0000 </r>
       <r>  -17.7871    1.0000 </r>
       <r>  -17.7848    1.0000 </r>
       <r>  -16.6072    1.0000 </r>
       <r>  -16.4976    1.0000 </r>
       <r>  -16.4971    1.0000 </r>
       <r>  -16.0894    1.0000 </r>
       <r>  -16.0891    1.0000 </r>
       <r>  -16.0757    1.0000 </r>
       <r>  -15.9548    1.0000 </r>
       <r>  -15.9546    1.0000 </r>
       <r>  -15.8755    1.0000 </r>
       <r>  -15.5429    1.0000 </r>
       <r>  -15.5415    1.0000 </r>
       <r>  -15.1367    1.0000 </r>
       <r>  -14.5795    1.0000 </r>
       <r>  -14.5749    1.0000 </r>
       <r>  -13.9429    1.0000 </r>
       <r>  -13.6593    1.0000 </r>
       <r>  -13.6539    1.0000 </r>
       <r>  -13.2707    1.0000 </r>
       <r>  -13.2692    1.0000 </r>
       <r>  -13.1482    1.0000 </r>
       <r>  -13.0365    1.0000 </r>
       <r>  -12.8249    1.0000 </r>
       <r>  -12.8244    1.0000 </r>
       <r>  -12.7060    1.0000 </r>
       <r>  -12.5587    1.0000 </r>
       <r>  -12.5573    1.0000 </r>
       <r>  -12.4985    1.0000 </r>
       <r>  -12.1421    1.0000 </r>
       <r>  -12.1136    1.0000 </r>
       <r>  -12.1075    1.0000 </r>
       <r>  -12.0064    1.0000 </r>
       <r>  -11.6692    1.0000 </r>
       <r>  -11.6650    1.0000 </r>
       <r>  -11.4752    1.0000 </r>
       <r>  -11.2819    1.0000 </r>
       <r>  -11.2812    1.0000 </r>
       <r>  -11.1682    1.0000 </r>
       <r>  -11.0530    1.0000 </r>
       <r>  -10.7366    1.0000 </r>
       <r>  -10.7356    1.0000 </r>
       <r>  -10.6901    1.0000 </r>
       <r>  -10.6400    1.0000 </r>
       <r>  -10.6393    1.0000 </r>
       <r>  -10.3905    1.0000 </r>
       <r>  -10.3155    1.0000 </r>
       <r>  -10.2831    1.0000 </r>
       <r>  -10.2755    1.0000 </r>
       <r>  -10.1387    1.0000 </r>
       <r>  -10.1385    1.0000 </r>
       <r>  -10.0331    1.0000 </r>
       <r>  -10.0026    1.0000 </r>
       <r>   -9.8660    1.0000 </r>
       <r>   -9.8654    1.0000 </r>
       <r>   -9.7525    1.0000 </r>
       <r>   -9.6146    1.0000 </r>
       <r>   -9.5540    1.0000 </r>
       <r>   -9.5525    1.0000 </r>
       <r>   -9.3622    1.0000 </r>
       <r>   -9.1623    1.0000 </r>
       <r>   -9.1608    1.0000 </r>
       <r>   -8.9943    1.0000 </r>
       <r>   -8.9939    1.0000 </r>
       <r>   -8.7703    1.0000 </r>
       <r>   -8.6950    1.0000 </r>
       <r>   -8.6117    1.0000 </r>
       <r>   -8.6106    1.0000 </r>
       <r>   -8.4007    1.0000 </r>
       <r>   -8.2968    1.0000 </r>
       <r>   -8.2959    1.0000 </r>
       <r>   -8.1518    1.0000 </r>
       <r>   -8.1517    1.0000 </r>
       <r>   -8.0743    1.0000 </r>
       <r>   -8.0740    1.0000 </r>
       <r>   -7.9996    1.0000 </r>
       <r>   -7.9993    1.0000 </r>
       <r>   -7.6804    1.0000 </r>
       <r>   -7.1493    1.0000 </r>
       <r>   -6.8957    1.0000 </r>
       <r>   -6.8884    1.0000 </r>
       <r>   -6.8175    1.0000 </r>
       <r>   -6.7937    1.0000 </r>
       <r>   -6.7930    1.0000 </r>
       <r>   -6.3828    1.0000 </r>
       <r>   -6.3211    1.0000 </r>
       <r>   -6.3209    1.0000 </r>
       <r>   -6.2838    1.0000 </r>
       <r>   -6.0681    1.0000 </r>
       <r>   -6.0675    1.0000 </r>
       <r>   -5.9551    1.0000 </r>
       <r>   -5.9454    1.0000 </r>
       <r>   -5.9391    1.0000 </r>
       <r>   -5.8160    1.0000 </r>
       <r>   -5.8157    1.0000 </r>
       <r>   -5.3546    1.0000 </r>
       <r>   -5.2623    1.0000 </r>
       <r>   -5.2620    1.0000 </r>
       <r>   -4.7230    1.0000 </r>
       <r>   -4.6351    1.0000 </r>
       <r>   -4.6345    1.0000 </r>
       <r>   -2.8690    0.0000 </r>
       <r>   -2.8683    0.0000 </r>
       <r>   -2.7153    0.0000 </r>
       <r>   -2.2892    0.0000 </r>
       <r>   -2.2890    0.0000 </r>
       <r>   -2.1939    0.0000 </r>
       <r>   -2.1933    0.0000 </r>
       <r>   -1.9052    0.0000 </r>
       <r>   -1.5264    0.0000 </r>
       <r>   -1.3877    0.0000 </r>
       <r>   -1.3875    0.0000 </r>
       <r>   -1.3390    0.0000 </r>
       <r>   -0.2648    0.0000 </r>
       <r>   -0.2623    0.0000 </r>
       <r>   -0.1604    0.0000 </r>
       <r>    0.0653    0.0000 </r>
       <r>    0.0673    0.0000 </r>
       <r>    0.1192    0.0000 </r>
       <r>    0.1309    0.0000 </r>
       <r>    0.1644    0.0000 </r>
       <r>    0.2438    0.0000 </r>
       <r>    0.3101    0.0000 </r>
       <r>    0.3170    0.0000 </r>
       <r>    0.3978    0.0000 </r>
       <r>    0.5234    0.0000 </r>
       <r>    0.5653    0.0000 </r>
       <r>    0.5670    0.0000 </r>
       <r>    0.6415    0.0000 </r>
       <r>    0.6826    0.0000 </r>
       <r>    0.6967    0.0000 </r>
       <r>    0.7052    0.0000 </r>
       <r>    0.7619    0.0000 </r>
       <r>    0.7796    0.0000 </r>
       <r>    0.7937    0.0000 </r>
       <r>    0.8729    0.0000 </r>
       <r>    0.9109    0.0000 </r>
       <r>    0.9128    0.0000 </r>
       <r>    0.9571    0.0000 </r>
       <r>    0.9854    0.0000 </r>
       <r>    0.9892    0.0000 </r>
       <r>    1.0298    0.0000 </r>
       <r>    1.0544    0.0000 </r>
       <r>    1.0586    0.0000 </r>
       <r>    1.1018    0.0000 </r>
       <r>    1.1183    0.0000 </r>
       <r>    1.1317    0.0000 </r>
       <r>    1.1511    0.0000 </r>
       <r>    1.1744    0.0000 </r>
       <r>    1.1813    0.0000 </r>
       <r>    1.2210    0.0000 </r>
      </set>
      <set comment="kpoint 4">
       <r>  -24.2572    1.0000 </r>
       <r>  -24.2564    1.0000 </r>
       <r>  -24.2559    1.0000 </r>
       <r>  -23.2859    1.0000 </r>
       <r>  -23.2446    1.0000 </r>
       <r>  -23.2441    1.0000 </r>
       <r>  -23.0871    1.0000 </r>
       <r>  -23.0435    1.0000 </r>
       <r>  -23.0425    1.0000 </r>
       <r>  -22.2556    1.0000 </r>
       <r>  -22.2289    1.0000 </r>
       <r>  -22.2286    1.0000 </r>
       <r>  -21.4511    1.0000 </r>
       <r>  -21.2897    1.0000 </r>
       <r>  -20.6416    1.0000 </r>
       <r>  -20.6382    1.0000 </r>
       <r>  -20.3953    1.0000 </r>
       <r>  -19.3367    1.0000 </r>
       <r>  -19.3316    1.0000 </r>
       <r>  -18.8914    1.0000 </r>
       <r>  -18.8827    1.0000 </r>
       <r>  -18.6501    1.0000 </r>
       <r>  -18.6319    1.0000 </r>
       <r>  -18.6317    1.0000 </r>
       <r>  -18.2300    1.0000 </r>
       <r>  -17.7901    1.0000 </r>
       <r>  -17.7848    1.0000 </r>
       <r>  -16.6060    1.0000 </r>
       <r>  -16.4982    1.0000 </r>
       <r>  -16.4971    1.0000 </r>
       <r>  -16.0893    1.0000 </r>
       <r>  -16.0890    1.0000 </r>
       <r>  -16.0758    1.0000 </r>
       <r>  -15.9550    1.0000 </r>
       <r>  -15.9547    1.0000 </r>
       <r>  -15.8755    1.0000 </r>
       <r>  -15.5427    1.0000 </r>
       <r>  -15.5396    1.0000 </r>
       <r>  -15.1412    1.0000 </r>
       <r>  -14.5796    1.0000 </r>
       <r>  -14.5696    1.0000 </r>
       <r>  -13.9507    1.0000 </r>
       <r>  -13.6590    1.0000 </r>
       <r>  -13.6472    1.0000 </r>
       <r>  -13.2728    1.0000 </r>
       <r>  -13.2694    1.0000 </r>
       <r>  -13.1479    1.0000 </r>
       <r>  -13.0358    1.0000 </r>
       <r>  -12.8251    1.0000 </r>
       <r>  -12.8242    1.0000 </r>
       <r>  -12.7050    1.0000 </r>
       <r>  -12.5611    1.0000 </r>
       <r>  -12.5576    1.0000 </r>
       <r>  -12.4989    1.0000 </r>
       <r>  -12.1459    1.0000 </r>
       <r>  -12.1132    1.0000 </r>
       <r>  -12.1015    1.0000 </r>
       <r>  -12.0056    1.0000 </r>
       <r>  -11.6742    1.0000 </r>
       <r>  -11.6650    1.0000 </r>
       <r>  -11.4713    1.0000 </r>
       <r>  -11.2829    1.0000 </r>
       <r>  -11.2813    1.0000 </r>
       <r>  -11.1671    1.0000 </r>
       <r>  -11.0534    1.0000 </r>
       <r>  -10.7376    1.0000 </r>
       <r>  -10.7356    1.0000 </r>
       <r>  -10.6892    1.0000 </r>
       <r>  -10.6400    1.0000 </r>
       <r>  -10.6388    1.0000 </r>
       <r>  -10.3949    1.0000 </r>
       <r>  -10.3187    1.0000 </r>
       <r>  -10.2830    1.0000 </r>
       <r>  -10.2684    1.0000 </r>
       <r>  -10.1389    1.0000 </r>
       <r>  -10.1386    1.0000 </r>
       <r>  -10.0336    1.0000 </r>
       <r>  -10.0024    1.0000 </r>
       <r>   -9.8667    1.0000 </r>
       <r>   -9.8654    1.0000 </r>
       <r>   -9.7518    1.0000 </r>
       <r>   -9.6160    1.0000 </r>
       <r>   -9.5540    1.0000 </r>
       <r>   -9.5505    1.0000 </r>
       <r>   -9.3636    1.0000 </r>
       <r>   -9.1623    1.0000 </r>
       <r>   -9.1588    1.0000 </r>
       <r>   -8.9949    1.0000 </r>
       <r>   -8.9939    1.0000 </r>
       <r>   -8.7709    1.0000 </r>
       <r>   -8.6956    1.0000 </r>
       <r>   -8.6118    1.0000 </r>
       <r>   -8.6092    1.0000 </r>
       <r>   -8.4030    1.0000 </r>
       <r>   -8.2966    1.0000 </r>
       <r>   -8.2948    1.0000 </r>
       <r>   -8.1518    1.0000 </r>
       <r>   -8.1517    1.0000 </r>
       <r>   -8.0743    1.0000 </r>
       <r>   -8.0740    1.0000 </r>
       <r>   -7.9996    1.0000 </r>
       <r>   -7.9993    1.0000 </r>
       <r>   -7.6773    1.0000 </r>
       <r>   -7.1587    1.0000 </r>
       <r>   -6.8957    1.0000 </r>
       <r>   -6.8802    1.0000 </r>
       <r>   -6.8170    1.0000 </r>
       <r>   -6.7937    1.0000 </r>
       <r>   -6.7925    1.0000 </r>
       <r>   -6.3848    1.0000 </r>
       <r>   -6.3211    1.0000 </r>
       <r>   -6.3209    1.0000 </r>
       <r>   -6.2849    1.0000 </r>
       <r>   -6.0681    1.0000 </r>
       <r>   -6.0667    1.0000 </r>
       <r>   -5.9588    1.0000 </r>
       <r>   -5.9454    1.0000 </r>
       <r>   -5.9352    1.0000 </r>
       <r>   -5.8165    1.0000 </r>
       <r>   -5.8157    1.0000 </r>
       <r>   -5.3539    1.0000 </r>
       <r>   -5.2626    1.0000 </r>
       <r>   -5.2620    1.0000 </r>
       <r>   -4.7223    1.0000 </r>
       <r>   -4.6357    1.0000 </r>
       <r>   -4.6345    1.0000 </r>
       <r>   -2.8690    0.0000 </r>
       <r>   -2.8674    0.0000 </r>
       <r>   -2.7168    0.0000 </r>
       <r>   -2.2892    0.0000 </r>
       <r>   -2.2890    0.0000 </r>
       <r>   -2.1945    0.0000 </r>
       <r>   -2.1933    0.0000 </r>
       <r>   -1.9017    0.0000 </r>
       <r>   -1.5285    0.0000 </r>
       <r>   -1.3877    0.0000 </r>
       <r>   -1.3875    0.0000 </r>
       <r>   -1.3401    0.0000 </r>
       <r>   -0.2649    0.0000 </r>
       <r>   -0.2592    0.0000 </r>
       <r>   -0.1590    0.0000 </r>
       <r>    0.0595    0.0000 </r>
       <r>    0.0640    0.0000 </r>
       <r>    0.1140    0.0000 </r>
       <r>    0.1351    0.0000 </r>
       <r>    0.1736    0.0000 </r>
       <r>    0.2449    0.0000 </r>
       <r>    0.3036    0.0000 </r>
       <r>    0.3176    0.0000 </r>
       <r>    0.4042    0.0000 </r>
       <r>    0.5245    0.0000 </r>
       <r>    0.5611    0.0000 </r>
       <r>    0.5648    0.0000 </r>
       <r>    0.6427    0.0000 </r>
       <r>    0.6778    0.0000 </r>
       <r>    0.6931    0.0000 </r>
       <r>    0.7084    0.0000 </r>
       <r>    0.7601    0.0000 </r>
       <r>    0.7789    0.0000 </r>
       <r>    0.8025    0.0000 </r>
       <r>    0.8720    0.0000 </r>
       <r>    0.9093    0.0000 </r>
       <r>    0.9138    0.0000 </r>
       <r>    0.9551    0.0000 </r>
       <r>    0.9794    0.0000 </r>
       <r>    0.9856    0.0000 </r>
       <r>    1.0278    0.0000 </r>
       <r>    1.0545    0.0000 </r>
       <r>    1.0630    0.0000 </r>
       <r>    1.1054    0.0000 </r>
       <r>    1.1185    0.0000 </r>
       <r>    1.1405    0.0000 </r>
       <r>    1.1527    0.0000 </r>
       <r>    1.1722    0.0000 </r>
       <r>    1.1862    0.0000 </r>
       <r>    1.2291    0.0000 </r>
      </set>
      <set comment="kpoint 5">
       <r>  -24.2572    1.0000 </r>
       <r>  -24.2564    1.0000 </r>
       <r>  -24.2559    1.0000 </r>
       <r>  -23.2859    1.0000 </r>
       <r>  -23.2447    1.0000 </r>
       <r>  -23.2441    1.0000 </r>
       <r>  -23.0869    1.0000 </r>
       <r>  -23.0436    1.0000 </r>
       <r>  -23.0425    1.0000 </r>
       <r>  -22.2553    1.0000 </r>
       <r>  -22.2290    1.0000 </r>
       <r>  -22.2287    1.0000 </r>
       <r>  -21.4503    1.0000 </r>
       <r>  -21.2909    1.0000 </r>
       <r>  -20.6416    1.0000 </r>
       <r>  -20.6356    1.0000 </r>
       <r>  -20.3982    1.0000 </r>
       <r>  -19.3367    1.0000 </r>
       <r>  -19.3276    1.0000 </r>
       <r>  -18.8978    1.0000 </r>
       <r>  -18.8827    1.0000 </r>
       <r>  -18.6497    1.0000 </r>
       <r>  -18.6319    1.0000 </r>
       <r>  -18.6317    1.0000 </r>
       <r>  -18.2237    1.0000 </r>
       <r>  -17.7943    1.0000 </r>
       <r>  -17.7848    1.0000 </r>
       <r>  -16.6045    1.0000 </r>
       <r>  -16.4990    1.0000 </r>
       <r>  -16.4970    1.0000 </r>
       <r>  -16.0893    1.0000 </r>
       <r>  -16.0888    1.0000 </r>
       <r>  -16.0760    1.0000 </r>
       <r>  -15.9552    1.0000 </r>
       <r>  -15.9550    1.0000 </r>
       <r>  -15.8756    1.0000 </r>
       <r>  -15.5425    1.0000 </r>
       <r>  -15.5368    1.0000 </r>
       <r>  -15.1473    1.0000 </r>
       <r>  -14.5798    1.0000 </r>
       <r>  -14.5623    1.0000 </r>
       <r>  -13.9609    1.0000 </r>
       <r>  -13.6587    1.0000 </r>
       <r>  -13.6384    1.0000 </r>
       <r>  -13.2758    1.0000 </r>
       <r>  -13.2696    1.0000 </r>
       <r>  -13.1474    1.0000 </r>
       <r>  -13.0348    1.0000 </r>
       <r>  -12.8253    1.0000 </r>
       <r>  -12.8238    1.0000 </r>
       <r>  -12.7035    1.0000 </r>
       <r>  -12.5643    1.0000 </r>
       <r>  -12.5582    1.0000 </r>
       <r>  -12.4996    1.0000 </r>
       <r>  -12.1496    1.0000 </r>
       <r>  -12.1127    1.0000 </r>
       <r>  -12.0948    1.0000 </r>
       <r>  -12.0045    1.0000 </r>
       <r>  -11.6808    1.0000 </r>
       <r>  -11.6651    1.0000 </r>
[...]
       <r>   -24.7858     0.0000     0.0000 </r>
       <r>   -24.6920     0.0000     0.0000 </r>
       <r>   -24.5982     0.0000     0.0000 </r>
       <r>   -24.5045     0.0000     0.0000 </r>
       <r>   -24.4107     0.0000     0.0000 </r>
       <r>   -24.3169     0.0000     0.0000 </r>
       <r>   -24.2231    63.9766     6.0000 </r>
       <r>   -24.1293     0.0000     6.0000 </r>
       <r>   -24.0355     0.0000     6.0000 </r>
       <r>   -23.9417     0.0000     6.0000 </r>
       <r>   -23.8480     0.0000     6.0000 </r>
       <r>   -23.7542     0.0000     6.0000 </r>
       <r>   -23.6604     0.0000     6.0000 </r>
       <r>   -23.5666     0.0000     6.0000 </r>
       <r>   -23.4728     0.0000     6.0000 </r>
       <r>   -23.3790     0.0000     6.0000 </r>
       <r>   -23.2853    10.2797     6.9641 </r>
       <r>   -23.1915    42.6511    12.0000 </r>
       <r>   -23.0977     0.7964    12.0747 </r>
       <r>   -23.0039    52.0202    18.0000 </r>
       <r>   -22.9101     0.0000    18.0000 </r>
       <r>   -22.8163     0.0000    18.0000 </r>
       <r>   -22.7226     0.0000    18.0000 </r>
       <r>   -22.6288     0.0000    18.0000 </r>
       <r>   -22.5350     0.0000    18.0000 </r>
       <r>   -22.4412     0.0000    18.0000 </r>
       <r>   -22.3474     0.0000    18.0000 </r>
       <r>   -22.2536     6.8795    18.6452 </r>
       <r>   -22.1598    39.3204    24.0000 </r>
       <r>   -22.0661     0.0000    24.0000 </r>
       <r>   -21.9723     0.0000    24.0000 </r>
       <r>   -21.8785     0.0000    24.0000 </r>
       <r>   -21.7847     0.0000    24.0000 </r>
       <r>   -21.6909     0.0000    24.0000 </r>
       <r>   -21.5971     0.0000    24.0000 </r>
       <r>   -21.5034     0.0000    24.0000 </r>
       <r>   -21.4096    21.3131    25.9988 </r>
       <r>   -21.3158     7.6880    26.7210 </r>
       <r>   -21.2220     6.7326    28.0000 </r>
       <r>   -21.1282     0.0000    28.0000 </r>
       <r>   -21.0344     0.0000    28.0000 </r>
       <r>   -20.9407     0.0000    28.0000 </r>
       <r>   -20.8469     0.0000    28.0000 </r>
       <r>   -20.7531     0.0000    28.0000 </r>
       <r>   -20.6593     0.1407    28.0132 </r>
       <r>   -20.5655    33.0008    31.1081 </r>
       <r>   -20.4717    15.0352    32.9114 </r>
       <r>   -20.3779     9.8897    33.9954 </r>
       <r>   -20.2842     0.0000    34.0000 </r>
       <r>   -20.1904     0.0000    34.0000 </r>
       <r>   -20.0966     0.0000    34.0000 </r>
       <r>   -20.0028     0.0000    34.0000 </r>
       <r>   -19.9090     0.0000    34.0000 </r>
       <r>   -19.8152     0.0000    34.0000 </r>
       <r>   -19.7215     0.0000    34.0000 </r>
       <r>   -19.6277     0.0000    34.0000 </r>
       <r>   -19.5339     0.0000    34.0000 </r>
       <r>   -19.4401     0.0000    34.0000 </r>
       <r>   -19.3463     2.0041    34.1879 </r>
       <r>   -19.2525     6.9282    36.8509 </r>
       <r>   -19.1588    11.3670    37.9997 </r>
       <r>   -19.0650     5.3071    38.4977 </r>
       <r>   -18.9712     6.0676    39.3056 </r>
       <r>   -18.8774    22.9345    41.5178 </r>
       <r>   -18.7836     0.0000    42.0000 </r>
       <r>   -18.6898     0.0000    42.0000 </r>
       <r>   -18.5960    63.9767    48.0000 </r>
       <r>   -18.5023     0.0000    48.0000 </r>
       <r>   -18.4085     0.0000    48.0000 </r>
       <r>   -18.3147     0.0000    48.0000 </r>
       <r>   -18.2209     3.1854    48.2987 </r>
       <r>   -18.1271     4.2022    48.7948 </r>
       <r>   -18.0333     8.1757    49.6334 </r>
       <r>   -17.9396     7.1226    50.4351 </r>
       <r>   -17.8458     7.5979    51.3141 </r>
       <r>   -17.7520    27.7173    54.0000 </r>
       <r>   -17.6582     0.0000    54.0000 </r>
       <r>   -17.5644     0.0000    54.0000 </r>
       <r>   -17.4706     0.0000    54.0000 </r>
       <r>   -17.3769     0.0000    54.0000 </r>
       <r>   -17.2831     0.0000    54.0000 </r>
       <r>   -17.1893     0.0000    54.0000 </r>
       <r>   -17.0955     0.0000    54.0000 </r>
       <r>   -17.0017     0.0000    54.0000 </r>
       <r>   -16.9079     0.0000    54.0000 </r>
       <r>   -16.8141     0.0000    54.0000 </r>
       <r>   -16.7204     0.0000    54.0000 </r>
       <r>   -16.6266     0.0098    54.0009 </r>
       <r>   -16.5328    24.2633    56.2764 </r>
       <r>   -16.4390    31.6098    60.0000 </r>
       <r>   -16.3452     0.0000    60.0000 </r>
       <r>   -16.2514     0.0000    60.0000 </r>
       <r>   -16.1577     0.0000    60.0000 </r>
       <r>   -16.0639    63.5121    65.9564 </r>
       <r>   -15.9701     2.3751    66.2227 </r>
       <r>   -15.8763    21.0558    70.9595 </r>
       <r>   -15.7825     0.0000    72.0000 </r>
       <r>   -15.6887     0.0000    72.0000 </r>
       <r>   -15.5950     0.0000    72.0000 </r>
       <r>   -15.5012    28.8526    74.7059 </r>
       <r>   -15.4074    12.4326    76.0000 </r>
       <r>   -15.3136     0.1263    76.0118 </r>
       <r>   -15.2198    11.4513    77.2760 </r>
       <r>   -15.1260     6.4993    77.9762 </r>
       <r>   -15.0322     0.0000    78.0000 </r>
       <r>   -14.9385     0.0000    78.0000 </r>
       <r>   -14.8447     0.0000    78.0000 </r>
       <r>   -14.7509     0.0000    78.0000 </r>
       <r>   -14.6571     0.0000    78.0000 </r>
       <r>   -14.5633    24.0845    80.2587 </r>
       <r>   -14.4695     3.8966    80.7323 </r>
       <r>   -14.3758     6.7158    81.4298 </r>
       <r>   -14.2820     4.2581    82.0000 </r>
       <r>   -14.1882     4.2843    82.4018 </r>
       <r>   -14.0944     6.6614    83.1921 </r>
       <r>   -14.0006     3.2423    83.5380 </r>
       <r>   -13.9068     4.2620    84.0000 </r>
       <r>   -13.8131     0.0000    84.0000 </r>
       <r>   -13.7193     0.0000    84.0000 </r>
       <r>   -13.6255    25.1302    86.3568 </r>
       <r>   -13.5317     4.0243    86.8108 </r>
       <r>   -13.4379    12.0704    87.9992 </r>
       <r>   -13.3441    10.8246    89.0152 </r>
       <r>   -13.2503    30.5287    91.9972 </r>
       <r>   -13.1566     0.7669    92.0719 </r>
       <r>   -13.0628    13.3630    94.0000 </r>
       <r>   -12.9690    21.3252    96.0000 </r>
       <r>   -12.8752     0.0000    96.0000 </r>
       <r>   -12.7814    42.6511   100.0000 </r>
       <r>   -12.6876     7.9198   100.7428 </r>
       <r>   -12.5939    13.2284   103.2406 </r>
       <r>   -12.5001    36.9760   107.7077 </r>
       <r>   -12.4063     0.0000   108.0000 </r>
       <r>   -12.3125     0.0000   108.0000 </r>
       <r>   -12.2187     0.0000   108.0000 </r>
       <r>   -12.1249    21.5991   110.0257 </r>
       <r>   -12.0312    36.3551   113.9803 </r>
       <r>   -11.9374    10.6908   115.0027 </r>
       <r>   -11.8436    12.7897   116.3363 </r>
       <r>   -11.7498     8.4672   117.2956 </r>
       <r>   -11.6560    26.1358   119.8181 </r>
       <r>   -11.5622     0.0000   120.0000 </r>
       <r>   -11.4684     2.5589   120.2400 </r>
       <r>   -11.3747    12.1901   121.5439 </r>
       <r>   -11.2809    32.4117   125.0397 </r>
       <r>   -11.1871     0.0124   126.0012 </r>
       <r>   -11.0933    21.3474   128.0032 </r>
       <r>   -10.9995    21.2913   130.0000 </r>
       <r>   -10.9057     0.0000   130.0000 </r>
       <r>   -10.8120     0.0000   130.0000 </r>
       <r>   -10.7182    42.0877   133.9472 </r>
       <r>   -10.6244    48.9891   138.5947 </r>
       <r>   -10.5306    14.0025   140.2472 </r>
       <r>   -10.4368     9.1451   141.4602 </r>
       <r>   -10.3430     4.6282   142.0008 </r>
       <r>   -10.2493    46.5692   146.3683 </r>
       <r>   -10.1555    22.7258   148.6314 </r>
       <r>   -10.0617    31.3587   152.4709 </r>
       <r>    -9.9679    28.2480   155.9177 </r>
       <r>    -9.8741    18.8892   157.7715 </r>
       <r>    -9.7803     0.0001   160.0000 </r>
       <r>    -9.6865    21.3280   162.0002 </r>
       <r>    -9.5928    21.3196   163.9997 </r>
       <r>    -9.4990    31.6775   166.9709 </r>
       <r>    -9.4052    17.2228   169.0516 </r>
       <r>    -9.3114     7.8079   170.0000 </r>
       <r>    -9.2176     0.0000   170.0000 </r>
       <r>    -9.1238    28.8999   172.7104 </r>
       <r>    -9.0301    17.7008   174.5274 </r>
       <r>    -8.9363    30.5543   178.0000 </r>
       <r>    -8.8425     0.0000   178.0000 </r>
       <r>    -8.7487    21.3215   179.9996 </r>
       <r>    -8.6549    21.3256   182.0000 </r>
       <r>    -8.5611    34.3597   185.2224 </r>
       <r>    -8.4674    11.7125   186.9023 </r>
       <r>    -8.3736     9.2278   188.0000 </r>
       <r>    -8.2798    28.8360   190.7044 </r>
       <r>    -8.1860     0.0001   192.0000 </r>
       <r>    -8.0922    42.8712   196.0207 </r>
       <r>    -7.9984    68.0181   202.3997 </r>
       <r>    -7.9046     0.0000   204.0000 </r>
       <r>    -7.8109     0.0000   204.0000 </r>
       <r>    -7.7171     0.0000   204.0000 </r>
       <r>    -7.6233     7.0887   204.6648 </r>
       <r>    -7.5295     7.9954   205.4837 </r>
       <r>    -7.4357     6.3688   206.2316 </r>
       <r>    -7.3419     8.0814   207.0919 </r>
       <r>    -7.2482     3.0955   207.4238 </r>
       <r>    -7.1544     3.3490   207.8141 </r>
       <r>    -7.0606     0.0000   208.0000 </r>
       <r>    -6.9668     0.0000   208.0000 </r>
       <r>    -6.8730    24.1081   210.2610 </r>
       <r>    -6.7792    64.9570   216.4260 </r>
       <r>    -6.6855     3.5463   216.8995 </r>
       <r>    -6.5917     8.7788   217.7901 </r>
       <r>    -6.4979     8.2874   218.7117 </r>
       <r>    -6.4041     5.8206   219.5128 </r>
       <r>    -6.3103    46.4502   224.0245 </r>
       <r>    -6.2165     6.7243   226.0000 </r>
       <r>    -6.1227     0.0000   226.0000 </r>
       <r>    -6.0290    42.0266   229.9414 </r>
       <r>    -5.9352    43.3603   234.0666 </r>
       <r>    -5.8414    20.8458   236.3895 </r>
       <r>    -5.7476    29.1144   240.0000 </r>
       <r>    -5.6538     0.0000   240.0000 </r>
       <r>    -5.5600     0.0000   240.0000 </r>
       <r>    -5.4663     0.0000   240.0000 </r>
       <r>    -5.3725     0.0204   240.0019 </r>
       <r>    -5.2787    26.7647   242.5120 </r>
       <r>    -5.1849    25.7179   246.0000 </r>
       <r>    -5.0911     0.0000   246.0000 </r>
       <r>    -4.9973     0.0000   246.0000 </r>
       <r>    -4.9036     0.0000   246.0000 </r>
       <r>    -4.8098     0.0000   246.0000 </r>
       <r>    -4.7160     4.9753   246.4666 </r>
       <r>    -4.6222    53.7517   251.9105 </r>
       <r>    -4.5284     0.0000   252.0000 </r>
       <r>    -4.4346     0.0000   252.0000 </r>
       <r>    -4.3409     0.0000   252.0000 </r>
       <r>    -4.2471     0.0000   252.0000 </r>
       <r>    -4.1533     0.0000   252.0000 </r>
       <r>    -4.0595     0.0000   252.0000 </r>
       <r>    -3.9657     0.0000   252.0000 </r>
       <r>    -3.8719     0.0000   252.0000 </r>
       <r>    -3.7781     0.0000   252.0000 </r>
       <r>    -3.6844     0.0000   252.0000 </r>
       <r>    -3.5906     0.0000   252.0000 </r>
       <r>    -3.4968     0.0000   252.0000 </r>
       <r>    -3.4030     0.0000   252.0000 </r>
       <r>    -3.3092     0.0000   252.0000 </r>
       <r>    -3.2154     0.0000   252.0000 </r>
       <r>    -3.1217     0.0000   252.0000 </r>
       <r>    -3.0279     0.0000   252.0000 </r>
       <r>    -2.9341     0.0000   252.0000 </r>
       <r>    -2.8403    30.4723   254.8578 </r>
       <r>    -2.7465    22.7804   257.2755 </r>
       <r>    -2.6527     6.0224   258.0000 </r>
       <r>    -2.5590     0.0000   258.0000 </r>
       <r>    -2.4652     0.0000   258.0000 </r>
       <r>    -2.3714     0.0000   258.0000 </r>
       <r>    -2.2776    40.4248   261.7912 </r>
       <r>    -2.1838    40.3172   265.7811 </r>
       <r>    -2.0900     0.0000   266.0000 </r>
       <r>    -1.9962     0.0000   266.0000 </r>
       <r>    -1.9025     1.9575   266.1836 </r>
       <r>    -1.8087     5.3407   266.8680 </r>
       <r>    -1.7149    11.3601   267.9994 </r>
       <r>    -1.6211    10.1316   268.9502 </r>
       <r>    -1.5273     8.1449   269.8309 </r>
       <r>    -1.4335     0.0000   270.0000 </r>
       <r>    -1.3398    61.6651   275.7832 </r>
       <r>    -1.2460     0.0000   276.0000 </r>
       <r>    -1.1522     0.0000   276.0000 </r>
       <r>    -1.0584     0.0000   276.0000 </r>
       <r>    -0.9646     0.0000   276.0000 </r>
       <r>    -0.8708     0.0000   276.0000 </r>
       <r>    -0.7771     0.0000   276.0000 </r>
       <r>    -0.6833     0.0000   276.0000 </r>
       <r>    -0.5895     0.0000   276.0000 </r>
       <r>    -0.4957     0.0000   276.0000 </r>
       <r>    -0.4019     0.0000   276.0000 </r>
       <r>    -0.3081     0.0000   276.0000 </r>
       <r>    -0.2143    28.0703   278.6325 </r>
       <r>    -0.1206    18.8730   280.5035 </r>
       <r>    -0.0268    27.9320   283.4211 </r>
       <r>     0.0670    32.3551   286.8383 </r>
       <r>     0.1608    21.4884   289.2488 </r>
       <r>     0.2546    27.8891   292.5523 </r>
       <r>     0.3484    41.4459   296.7551 </r>
       <r>     0.4421    25.9232   299.2979 </r>
       <r>     0.5359    38.5369   303.4500 </r>
       <r>     0.6297    40.0863   307.4293 </r>
       <r>     0.7235    66.4872   314.0067 </r>
       <r>     0.8173    44.6491   318.9899 </r>
       <r>     0.9111    51.7648   324.8574 </r>
       <r>     1.0048    55.1191   331.1055 </r>
       <r>     1.0986    70.7349   338.5406 </r>
       <r>     1.1924    67.7682   345.6593 </r>
       <r>     1.2862    43.7300   350.6759 </r>
       <r>     1.3800     7.0466   352.0000 </r>
       <r>     1.4738     0.0000   352.0000 </r>
       <r>     1.5676     0.0000   352.0000 </r>
       <r>     1.6613     0.0000   352.0000 </r>
       <r>     1.7551     0.0000   352.0000 </r>
       <r>     1.8489     0.0000   352.0000 </r>
       <r>     1.9427     0.0000   352.0000 </r>
       <r>     2.0365     0.0000   352.0000 </r>
       <r>     2.1303     0.0000   352.0000 </r>
       <r>     2.2240     0.0000   352.0000 </r>
       <r>     2.3178     0.0000   352.0000 </r>
       <r>     2.4116     0.0000   352.0000 </r>
       <r>     2.5054     0.0000   352.0000 </r>
       <r>     2.5992     0.0000   352.0000 </r>
      </set>
     </set>
    </array>
   </total>
  </dos>
 </calculation>
 <structure name="finalpos" >
  <crystal>
   <varray name="basis" >
    <v>      22.41063567      -0.00000004       0.00000000 </v>
    <v>     -11.20531780      19.40817983       0.00000000 </v>
    <v>       0.00000000       0.00000000      20.00000000 </v>
   </varray>
   <i name="volume">   8698.99293269 </i>
   <varray name="rec_basis" >
    <v>       0.04462167       0.02576233       0.00000000 </v>
    <v>       0.00000000       0.05152467       0.00000000 </v>
    <v>       0.00000000       0.00000000       0.05000000 </v>
   </varray>
  </crystal>
  <varray name="positions" >
   <v>       0.59098057       0.20568997       0.45445449 </v>
   <v>       0.61470941       0.40901943       0.45445449 </v>
   <v>       0.79431003       0.38529059       0.45445449 </v>
   <v>       0.80925399       0.49945222       0.44614059 </v>
   <v>       0.50054778       0.30980176       0.44614059 </v>
   <v>       0.69019824       0.19074601       0.44614059 </v>
   <v>       0.71210369       0.75960934       0.34284639 </v>
   <v>       0.63072460       0.63069535       0.34202015 </v>
   <v>       0.36930465       0.00002924       0.34202015 </v>
   <v>       0.73795170       0.14963663       0.52836319 </v>
   <v>       0.78685991       0.07186441       0.53258508 </v>
   <v>       0.41168493       0.26204830       0.52836319 </v>
   <v>       0.08974000       0.12428321       0.48126454 </v>
   <v>       0.03454321       0.91026000       0.48126454 </v>
   <v>       0.87571679       0.96545679       0.48126454 </v>
   <v>       0.84243034       0.84575250       0.48460303 </v>
   <v>       0.15424750       0.99667784       0.48460303 </v>
   <v>       0.00332216       0.15756966       0.48460303 </v>
   <v>       0.04750565       0.28789631       0.34284639 </v>
   <v>       0.99997076       0.36927540       0.34202015 </v>
   <v>       0.85036337       0.58831507       0.52836319 </v>
   <v>       0.92813559       0.71499551       0.53258508 </v>
   <v>       0.24039066       0.95249435       0.34284639 </v>
   <v>       0.28500449       0.21314009       0.53258508 </v>
   <v>       0.70904855       0.40545535       0.45543359 </v>
   <v>       0.73844960       0.36323008       0.45526516 </v>
   <v>       0.69640680       0.29095145       0.45543359 </v>
   <v>       0.62478048       0.26155040       0.45526516 </v>
   <v>       0.59454465       0.30359320       0.45543359 </v>
   <v>       0.63676992       0.37521952       0.45526516 </v>
   <v>       0.72658122       0.24622490       0.45463334 </v>
   <v>       0.51964368       0.27341878       0.45463334 </v>
   <v>       0.75377510       0.48035632       0.45463334 </v>
   <v>       0.77477507       0.59223730       0.46538798 </v>
   <v>       0.75551720       0.63736352       0.43302038 </v>
   <v>       0.80017197       0.71093201       0.43665919 </v>
   <v>       0.72484066       0.72507026       0.37008516 </v>
   <v>       0.67986360       0.65286280       0.36878004 </v>
   <v>       0.81746224       0.22522493       0.46538798 </v>
   <v>       0.40776270       0.18253776       0.46538798 </v>
   <v>       0.36263648       0.11815368       0.43302038 </v>
   <v>       0.34713720       0.02700079       0.36878004 </v>
   <v>       0.81355239       0.12018351       0.50486197 </v>
   <v>       0.78550643       0.16362855       0.50142241 </v>
   <v>       0.37812212       0.21449357       0.50142241 </v>
   <v>       0.94944073       0.92962233       0.48122793 </v>
   <v>       0.93004308       0.97997921       0.48121556 </v>
   <v>       0.98018160       0.05055927       0.48122793 </v>
   <v>       0.04993613       0.06995692       0.48121556 </v>
   <v>       0.07037767       0.01981840       0.48122793 </v>
   <v>       0.02002079       0.95006387       0.48121556 </v>
   <v>       0.96076729       0.10400910       0.48137878 </v>
   <v>       0.14324181       0.03923271       0.48137878 </v>
   <v>       0.89599090       0.85675819       0.48137878 </v>
   <v>       0.88184632       0.24448280       0.43302038 </v>
   <v>       0.91076004       0.19982803       0.43665919 </v>
   <v>       0.00022960       0.27515934       0.37008516 </v>
   <v>       0.97299921       0.32013640       0.36878004 </v>
   <v>       0.86364114       0.73941557       0.47418670 </v>
   <v>       0.87981649       0.69336889       0.50486197 </v>
   <v>       0.83637145       0.62187788       0.50142241 </v>
   <v>       0.87577443       0.13635886       0.47418670 </v>
   <v>       0.28906799       0.08923996       0.43665919 </v>
   <v>       0.27492974       0.99977040       0.37008516 </v>
   <v>       0.26058443       0.12422557       0.47418670 </v>
   <v>       0.30663111       0.18644761       0.50486197 </v>
   <v>       0.78376943       0.75359552       0.40318057 </v>
   <v>       0.69514419       0.60955286       0.39850499 </v>
   <v>       0.73013610       0.52167829       0.46224429 </v>
   <v>       0.79154220       0.26986390       0.46224429 </v>
   <v>       0.39044714       0.08559133       0.39850499 </v>
   <v>       0.47832171       0.20845780       0.46224429 </v>
   <v>       0.96982610       0.21623057       0.40318057 </v>
   <v>       0.91440867       0.30485581       0.39850499 </v>
   <v>       0.91177384       0.80888939       0.47872071 </v>
   <v>       0.89711555       0.08822616       0.47872071 </v>
   <v>       0.24640448       0.03017390       0.40318057 </v>
   <v>       0.19111061       0.10288445       0.47872071 </v>
  </varray>
 </structure>
</modeling>
