<?xml version="1.0" encoding="ISO-8859-1"?>
<modeling>
 <generator>
  <i name="program" type="string">vasp </i>
  <i name="version" type="string">5.4.4.18Apr17-6-g9f103f2a35  </i>
  <i name="subversion" type="string">(build Jun 07 2020 16:50:00) complex            parallel </i>
  <i name="platform" type="string">LinuxIFC </i>
  <i name="date" type="string">2023 02 28 </i>
  <i name="time" type="string">21:52:03 </i>
 </generator>
 <incar>
  <i type="string" name="SYSTEM">Simulation for cell shape cell volume r</i>
  <i type="int" name="ISTART">     1</i>
  <i type="string" name="PREC">high</i>
  <i type="string" name="ALGO">48</i>
  <i type="int" name="ICHARG">    11</i>
  <i type="int" name="NELM">   200</i>
  <i type="int" name="IBRION">    -1</i>
  <i name="EDIFF">      0.00001000</i>
  <i name="EDIFFG">     -0.01000000</i>
  <i type="int" name="NSW">     0</i>
  <i type="int" name="ISIF">     2</i>
  <i name="ENCUT">    500.00000000</i>
  <i name="POTIM">      0.30000000</i>
  <i type="string" name="LREAL">A</i>
  <i type="int" name="ISMEAR">     0</i>
  <i name="SIGMA">      0.01000000</i>
  <i type="int" name="NWRITE">     0</i>
  <i type="logical" name="LWAVE"> F  </i>
  <i type="logical" name="LCHARG"> F  </i>
  <v type="int" name="KPOINT_BSE">    -1     0     0     0</v>
  <i type="int" name="NELM">   200</i>
  <i type="string" name="GGA">PE</i>
 </incar>
 <structure name="primitive_cell" >
  <crystal>
   <varray name="basis" >
    <v>      21.67819676       0.02712673       0.00000000 </v>
    <v>     -10.81055245      18.87382093       0.00000000 </v>
    <v>       0.00000000       0.00000000      20.00000000 </v>
   </varray>
   <i name="volume">   8188.87317186 </i>
   <varray name="rec_basis" >
    <v>       0.04609626       0.02640303       0.00000000 </v>
    <v>      -0.00006625       0.05294549       0.00000000 </v>
    <v>       0.00000000       0.00000000       0.05000000 </v>
   </varray>
  </crystal>
  <varray name="positions" >
   <v>       0.07407263      -0.45262710      -0.45680562 </v>
   <v>       0.10875919      -0.38417893      -0.47664046 </v>
   <v>       0.11121395      -0.48769788      -0.43326990 </v>
   <v>      -0.00302039      -0.49246335      -0.46008697 </v>
   <v>       0.17907507      -0.34901423      -0.47576649 </v>
   <v>      -0.03839647      -0.45977974      -0.48246755 </v>
   <v>       0.18590716      -0.44956007      -0.43537312 </v>
   <v>       0.07258571       0.44098045      -0.40976572 </v>
   <v>      -0.03923828       0.43495536      -0.43968224 </v>
   <v>       0.22093148      -0.37966278      -0.45688655 </v>
   <v>      -0.00029110       0.40284038      -0.41366208 </v>
   <v>       0.20539648      -0.29382453      -0.49206906 </v>
   <v>       0.21767348      -0.47392669      -0.42180690 </v>
   <v>      -0.10861931      -0.49632408      -0.48466333 </v>
   <v>      -0.11380781       0.39692892      -0.44408495 </v>
   <v>       0.10576401       0.40555995      -0.38421882 </v>
   <v>       0.14964648       0.43903215      -0.36187927 </v>
   <v>      -0.14944970       0.43131034      -0.46630143 </v>
   <v>      -0.03775957       0.33436485      -0.39246238 </v>
   <v>       0.29917899      -0.33963481      -0.46134143 </v>
   <v>      -0.13579435      -0.46837647       0.49786581 </v>
   <v>      -0.00371402       0.32125191      -0.37500124 </v>
   <v>      -0.14342785       0.34146029      -0.42938093 </v>
   <v>       0.33133673      -0.26876807      -0.46557793 </v>
   <v>       0.33338803      -0.37694305      -0.46074823 </v>
   <v>      -0.22781227       0.39362183      -0.46885330 </v>
   <v>       0.34986024      -0.47565249      -0.44370692 </v>
   <v>       0.34754554      -0.15379561      -0.44129583 </v>
   <v>       0.40284032      -0.23522170      -0.46927246 </v>
   <v>       0.40457524      -0.33880033      -0.46656905 </v>
   <v>      -0.25998275       0.43299313      -0.47099645 </v>
   <v>      -0.26161011       0.32237884      -0.46718052 </v>
   <v>       0.31106921       0.42122270      -0.44374782 </v>
   <v>       0.44188245      -0.26776491      -0.47146985 </v>
   <v>       0.31374755      -0.09086879      -0.41408952 </v>
   <v>       0.40669329      -0.45103625      -0.45394489 </v>
   <v>       0.40414774      -0.12161836      -0.45254610 </v>
   <v>       0.44041008      -0.15718568      -0.46911559 </v>
   <v>       0.44324583      -0.37875388      -0.46670394 </v>
   <v>      -0.28135340      -0.46173057      -0.48928995 </v>
   <v>      -0.33142121       0.39584572      -0.46807517 </v>
   <v>      -0.33293328       0.29043996      -0.46594533 </v>
   <v>      -0.28546602       0.19746144      -0.49346112 </v>
   <v>       0.33522880       0.39674370      -0.42698086 </v>
   <v>       0.33535808      -0.03956813      -0.41383680 </v>
   <v>      -0.37000260       0.32486706      -0.46529256 </v>
   <v>       0.44277279      -0.48972619      -0.45363173 </v>
   <v>       0.44030717      -0.04721922      -0.45041090 </v>
   <v>      -0.33836271      -0.49146433      -0.47910363 </v>
   <v>      -0.34189071       0.17087203      -0.48071243 </v>
   <v>       0.40711133       0.43590918      -0.44063652 </v>
   <v>      -0.48621023      -0.11612416      -0.48437630 </v>
   <v>      -0.37134154       0.43459790      -0.46699510 </v>
   <v>      -0.48270810      -0.34628417      -0.47913816 </v>
   <v>       0.40591959      -0.00814897      -0.43188735 </v>
   <v>      -0.37393110       0.21231859      -0.46493139 </v>
   <v>      -0.45646482      -0.14278540      -0.49765285 </v>
   <v>      -0.45251909      -0.28949846      -0.48924632 </v>
   <v>      -0.48223098      -0.45163064      -0.46691757 </v>
   <v>      -0.48549924      -0.01084404      -0.46734892 </v>
   <v>      -0.37284682      -0.45540512      -0.47936281 </v>
   <v>      -0.45091010      -0.04604321      -0.48407173 </v>
   <v>      -0.44707068      -0.38122699      -0.47938417 </v>
   <v>      -0.37669766       0.10081398      -0.48188047 </v>
   <v>       0.35998042       0.31210335      -0.42091626 </v>
   <v>       0.36078241       0.06893110      -0.40300907 </v>
   <v>       0.44373200       0.39938239      -0.43966448 </v>
   <v>      -0.44373649       0.39830311      -0.45375790 </v>
   <v>       0.44258550       0.06467962      -0.43114331 </v>
   <v>      -0.44568660       0.17732839      -0.44895134 </v>
   <v>      -0.47093136       0.34159445      -0.44421191 </v>
   <v>      -0.47219484       0.20723099      -0.43659518 </v>
   <v>       0.41053796       0.32844763      -0.42694497 </v>
   <v>       0.41035589       0.10262198      -0.41356277 </v>
   <v>      -0.44352166      -0.49033747      -0.46658199 </v>
   <v>      -0.44670928       0.06604551      -0.46626240 </v>
   <v>      -0.48149880       0.43533053      -0.45284674 </v>
   <v>      -0.48373900       0.10286061      -0.44867067 </v>
  </varray>
 </structure>
 <varray name="primitive_index" >
  <v type="int" >        1 </v>
  <v type="int" >       61 </v>
  <v type="int" >        2 </v>
  <v type="int" >       33 </v>
  <v type="int" >        4 </v>
  <v type="int" >       72 </v>
  <v type="int" >        6 </v>
  <v type="int" >        3 </v>
  <v type="int" >       36 </v>
  <v type="int" >        5 </v>
  <v type="int" >       37 </v>
  <v type="int" >       45 </v>
  <v type="int" >       44 </v>
  <v type="int" >       42 </v>
  <v type="int" >       35 </v>
  <v type="int" >       73 </v>
  <v type="int" >       43 </v>
  <v type="int" >       34 </v>
  <v type="int" >       78 </v>
  <v type="int" >        7 </v>
  <v type="int" >       60 </v>
  <v type="int" >       55 </v>
  <v type="int" >       54 </v>
  <v type="int" >       63 </v>
  <v type="int" >       62 </v>
  <v type="int" >       11 </v>
  <v type="int" >       50 </v>
  <v type="int" >       46 </v>
  <v type="int" >        9 </v>
  <v type="int" >        8 </v>
  <v type="int" >       65 </v>
  <v type="int" >       66 </v>
  <v type="int" >       53 </v>
  <v type="int" >       64 </v>
  <v type="int" >       49 </v>
  <v type="int" >       26 </v>
  <v type="int" >       16 </v>
  <v type="int" >       13 </v>
  <v type="int" >       23 </v>
  <v type="int" >       59 </v>
  <v type="int" >       10 </v>
  <v type="int" >       12 </v>
  <v type="int" >       57 </v>
  <v type="int" >       77 </v>
  <v type="int" >       75 </v>
  <v type="int" >       67 </v>
  <v type="int" >       25 </v>
  <v type="int" >       15 </v>
  <v type="int" >       41 </v>
  <v type="int" >       39 </v>
  <v type="int" >       32 </v>
  <v type="int" >       38 </v>
  <v type="int" >       28 </v>
  <v type="int" >       40 </v>
  <v type="int" >       22 </v>
  <v type="int" >       18 </v>
  <v type="int" >       56 </v>
  <v type="int" >       58 </v>
  <v type="int" >       24 </v>
  <v type="int" >       14 </v>
  <v type="int" >       71 </v>
  <v type="int" >       68 </v>
  <v type="int" >       70 </v>
  <v type="int" >       69 </v>
  <v type="int" >       52 </v>
  <v type="int" >       48 </v>
  <v type="int" >       31 </v>
  <v type="int" >       29 </v>
  <v type="int" >       21 </v>
  <v type="int" >       19 </v>
  <v type="int" >       51 </v>
  <v type="int" >       47 </v>
  <v type="int" >       76 </v>
  <v type="int" >       74 </v>
  <v type="int" >       27 </v>
  <v type="int" >       17 </v>
  <v type="int" >       30 </v>
  <v type="int" >       20 </v>
 </varray>
 <kpoints>
  <generation param="listgenerated">
   <i name="divisions" type="int">      20 </i>
   <v>       0.00000000       0.00000000       0.00000000 </v>
   <v>       0.50000000      -0.50000000       0.00000000 </v>
   <v>       0.66466664      -0.33314048       0.00000000 </v>
   <v>       0.50000000       0.00000000       0.00000000 </v>
   <v>       0.33533336       0.33314048       0.00000000 </v>
   <v>       0.00000000       0.50000000       0.00000000 </v>
   <v>       0.00000000       0.00000000       0.00000000 </v>
  </generation>
  <varray name="kpointlist" >
   <v>       0.00000000       0.00000000       0.00000000 </v>
   <v>       0.02631579      -0.02631579       0.00000000 </v>
   <v>       0.05263158      -0.05263158       0.00000000 </v>
   <v>       0.07894737      -0.07894737       0.00000000 </v>
   <v>       0.10526316      -0.10526316       0.00000000 </v>
   <v>       0.13157895      -0.13157895       0.00000000 </v>
   <v>       0.15789474      -0.15789474       0.00000000 </v>
   <v>       0.18421053      -0.18421053       0.00000000 </v>
   <v>       0.21052632      -0.21052632       0.00000000 </v>
   <v>       0.23684211      -0.23684211       0.00000000 </v>
   <v>       0.26315789      -0.26315789       0.00000000 </v>
   <v>       0.28947368      -0.28947368       0.00000000 </v>
   <v>       0.31578947      -0.31578947       0.00000000 </v>
   <v>       0.34210526      -0.34210526       0.00000000 </v>
   <v>       0.36842105      -0.36842105       0.00000000 </v>
   <v>       0.39473684      -0.39473684       0.00000000 </v>
   <v>       0.42105263      -0.42105263       0.00000000 </v>
   <v>       0.44736842      -0.44736842       0.00000000 </v>
   <v>       0.47368421      -0.47368421       0.00000000 </v>
   <v>       0.50000000      -0.50000000       0.00000000 </v>
   <v>       0.50000000      -0.50000000       0.00000000 </v>
   <v>       0.50866667      -0.49121792       0.00000000 </v>
   <v>       0.51733333      -0.48243584       0.00000000 </v>
   <v>       0.52600000      -0.47365376       0.00000000 </v>
   <v>       0.53466666      -0.46487168       0.00000000 </v>
   <v>       0.54333333      -0.45608960       0.00000000 </v>
   <v>       0.55199999      -0.44730752       0.00000000 </v>
   <v>       0.56066666      -0.43852544       0.00000000 </v>
   <v>       0.56933332      -0.42974336       0.00000000 </v>
   <v>       0.57799999      -0.42096128       0.00000000 </v>
   <v>       0.58666665      -0.41217920       0.00000000 </v>
   <v>       0.59533332      -0.40339712       0.00000000 </v>
   <v>       0.60399998      -0.39461504       0.00000000 </v>
   <v>       0.61266665      -0.38583296       0.00000000 </v>
   <v>       0.62133331      -0.37705088       0.00000000 </v>
   <v>       0.62999998      -0.36826880       0.00000000 </v>
   <v>       0.63866664      -0.35948672       0.00000000 </v>
   <v>       0.64733331      -0.35070464       0.00000000 </v>
   <v>       0.65599997      -0.34192256       0.00000000 </v>
   <v>       0.66466664      -0.33314048       0.00000000 </v>
   <v>       0.66466664      -0.33314048       0.00000000 </v>
   <v>       0.65599997      -0.31560677       0.00000000 </v>
   <v>       0.64733331      -0.29807306       0.00000000 </v>
   <v>       0.63866664      -0.28053935       0.00000000 </v>
   <v>       0.62999998      -0.26300564       0.00000000 </v>
   <v>       0.62133331      -0.24547193       0.00000000 </v>
   <v>       0.61266665      -0.22793822       0.00000000 </v>
   <v>       0.60399998      -0.21040451       0.00000000 </v>
   <v>       0.59533332      -0.19287081       0.00000000 </v>
   <v>       0.58666665      -0.17533710       0.00000000 </v>
   <v>       0.57799999      -0.15780339       0.00000000 </v>
   <v>       0.56933332      -0.14026968       0.00000000 </v>
   <v>       0.56066666      -0.12273597       0.00000000 </v>
   <v>       0.55199999      -0.10520226       0.00000000 </v>
   <v>       0.54333333      -0.08766855       0.00000000 </v>
   <v>       0.53466666      -0.07013484       0.00000000 </v>
   <v>       0.52600000      -0.05260113       0.00000000 </v>
   <v>       0.51733333      -0.03506742       0.00000000 </v>
   <v>       0.50866667      -0.01753371       0.00000000 </v>
   <v>       0.50000000       0.00000000       0.00000000 </v>
   <v>       0.50000000       0.00000000       0.00000000 </v>
   <v>       0.49133333       0.01753371       0.00000000 </v>
   <v>       0.48266667       0.03506742       0.00000000 </v>
   <v>       0.47400000       0.05260113       0.00000000 </v>
   <v>       0.46533334       0.07013484       0.00000000 </v>
   <v>       0.45666667       0.08766855       0.00000000 </v>
   <v>       0.44800001       0.10520226       0.00000000 </v>
   <v>       0.43933334       0.12273597       0.00000000 </v>
   <v>       0.43066668       0.14026968       0.00000000 </v>
   <v>       0.42200001       0.15780339       0.00000000 </v>
   <v>       0.41333335       0.17533710       0.00000000 </v>
   <v>       0.40466668       0.19287081       0.00000000 </v>
   <v>       0.39600002       0.21040451       0.00000000 </v>
   <v>       0.38733335       0.22793822       0.00000000 </v>
   <v>       0.37866669       0.24547193       0.00000000 </v>
   <v>       0.37000002       0.26300564       0.00000000 </v>
   <v>       0.36133336       0.28053935       0.00000000 </v>
   <v>       0.35266669       0.29807306       0.00000000 </v>
   <v>       0.34400003       0.31560677       0.00000000 </v>
   <v>       0.33533336       0.33314048       0.00000000 </v>
   <v>       0.33533336       0.33314048       0.00000000 </v>
   <v>       0.31768424       0.34192256       0.00000000 </v>
   <v>       0.30003511       0.35070464       0.00000000 </v>
   <v>       0.28238599       0.35948672       0.00000000 </v>
   <v>       0.26473686       0.36826880       0.00000000 </v>
   <v>       0.24708774       0.37705088       0.00000000 </v>
   <v>       0.22943861       0.38583296       0.00000000 </v>
   <v>       0.21178949       0.39461504       0.00000000 </v>
   <v>       0.19414037       0.40339712       0.00000000 </v>
   <v>       0.17649124       0.41217920       0.00000000 </v>
   <v>       0.15884212       0.42096128       0.00000000 </v>
   <v>       0.14119299       0.42974336       0.00000000 </v>
   <v>       0.12354387       0.43852544       0.00000000 </v>
   <v>       0.10589475       0.44730752       0.00000000 </v>
   <v>       0.08824562       0.45608960       0.00000000 </v>
   <v>       0.07059650       0.46487168       0.00000000 </v>
   <v>       0.05294737       0.47365376       0.00000000 </v>
   <v>       0.03529825       0.48243584       0.00000000 </v>
   <v>       0.01764912       0.49121792       0.00000000 </v>
   <v>       0.00000000       0.50000000       0.00000000 </v>
   <v>       0.00000000       0.50000000       0.00000000 </v>
   <v>       0.00000000       0.47368421       0.00000000 </v>
   <v>       0.00000000       0.44736842       0.00000000 </v>
   <v>       0.00000000       0.42105263       0.00000000 </v>
   <v>       0.00000000       0.39473684       0.00000000 </v>
   <v>       0.00000000       0.36842105       0.00000000 </v>
   <v>       0.00000000       0.34210526       0.00000000 </v>
   <v>       0.00000000       0.31578947       0.00000000 </v>
   <v>       0.00000000       0.28947368       0.00000000 </v>
   <v>       0.00000000       0.26315789       0.00000000 </v>
   <v>       0.00000000       0.23684211       0.00000000 </v>
   <v>       0.00000000       0.21052632       0.00000000 </v>
   <v>       0.00000000       0.18421053       0.00000000 </v>
   <v>       0.00000000       0.15789474       0.00000000 </v>
   <v>       0.00000000       0.13157895       0.00000000 </v>
   <v>       0.00000000       0.10526316       0.00000000 </v>
   <v>       0.00000000       0.07894737       0.00000000 </v>
   <v>       0.00000000       0.05263158       0.00000000 </v>
   <v>       0.00000000       0.02631579       0.00000000 </v>
   <v>       0.00000000       0.00000000       0.00000000 </v>
  </varray>
  <varray name="weights" >
   <v>       0.00833333 </v>
   <v>       0.00833333 </v>
   <v>       0.00833333 </v>
   <v>       0.00833333 </v>
   <v>       0.00833333 </v>
   <v>       0.00833333 </v>
   <v>       0.00833333 </v>
   <v>       0.00833333 </v>
   <v>       0.00833333 </v>
   <v>       0.00833333 </v>
   <v>       0.00833333 </v>
   <v>       0.00833333 </v>
   <v>       0.00833333 </v>
   <v>       0.00833333 </v>
   <v>       0.00833333 </v>
   <v>       0.00833333 </v>
   <v>       0.00833333 </v>
   <v>       0.00833333 </v>
   <v>       0.00833333 </v>
   <v>       0.00833333 </v>
   <v>       0.00833333 </v>
   <v>       0.00833333 </v>
   <v>       0.00833333 </v>
   <v>       0.00833333 </v>
   <v>       0.00833333 </v>
   <v>       0.00833333 </v>
   <v>       0.00833333 </v>
   <v>       0.00833333 </v>
   <v>       0.00833333 </v>
   <v>       0.00833333 </v>
   <v>       0.00833333 </v>
   <v>       0.00833333 </v>
   <v>       0.00833333 </v>
   <v>       0.00833333 </v>
   <v>       0.00833333 </v>
   <v>       0.00833333 </v>
   <v>       0.00833333 </v>
   <v>       0.00833333 </v>
   <v>       0.00833333 </v>
   <v>       0.00833333 </v>
   <v>       0.00833333 </v>
   <v>       0.00833333 </v>
   <v>       0.00833333 </v>
   <v>       0.00833333 </v>
   <v>       0.00833333 </v>
   <v>       0.00833333 </v>
   <v>       0.00833333 </v>
   <v>       0.00833333 </v>
   <v>       0.00833333 </v>
   <v>       0.00833333 </v>
   <v>       0.00833333 </v>
   <v>       0.00833333 </v>
   <v>       0.00833333 </v>
   <v>       0.00833333 </v>
   <v>       0.00833333 </v>
   <v>       0.00833333 </v>
   <v>       0.00833333 </v>
   <v>       0.00833333 </v>
   <v>       0.00833333 </v>
   <v>       0.00833333 </v>
   <v>       0.00833333 </v>
   <v>       0.00833333 </v>
   <v>       0.00833333 </v>
   <v>       0.00833333 </v>
   <v>       0.00833333 </v>
   <v>       0.00833333 </v>
   <v>       0.00833333 </v>
   <v>       0.00833333 </v>
   <v>       0.00833333 </v>
   <v>       0.00833333 </v>
   <v>       0.00833333 </v>
   <v>       0.00833333 </v>
   <v>       0.00833333 </v>
   <v>       0.00833333 </v>
   <v>       0.00833333 </v>
   <v>       0.00833333 </v>
   <v>       0.00833333 </v>
   <v>       0.00833333 </v>
   <v>       0.00833333 </v>
   <v>       0.00833333 </v>
   <v>       0.00833333 </v>
   <v>       0.00833333 </v>
   <v>       0.00833333 </v>
   <v>       0.00833333 </v>
   <v>       0.00833333 </v>
   <v>       0.00833333 </v>
   <v>       0.00833333 </v>
   <v>       0.00833333 </v>
   <v>       0.00833333 </v>
   <v>       0.00833333 </v>
   <v>       0.00833333 </v>
   <v>       0.00833333 </v>
   <v>       0.00833333 </v>
   <v>       0.00833333 </v>
   <v>       0.00833333 </v>
   <v>       0.00833333 </v>
   <v>       0.00833333 </v>
   <v>       0.00833333 </v>
   <v>       0.00833333 </v>
   <v>       0.00833333 </v>
   <v>       0.00833333 </v>
   <v>       0.00833333 </v>
   <v>       0.00833333 </v>
   <v>       0.00833333 </v>
   <v>       0.00833333 </v>
   <v>       0.00833333 </v>
   <v>       0.00833333 </v>
   <v>       0.00833333 </v>
   <v>       0.00833333 </v>
   <v>       0.00833333 </v>
   <v>       0.00833333 </v>
   <v>       0.00833333 </v>
   <v>       0.00833333 </v>
   <v>       0.00833333 </v>
   <v>       0.00833333 </v>
   <v>       0.00833333 </v>
   <v>       0.00833333 </v>
   <v>       0.00833333 </v>
   <v>       0.00833333 </v>
   <v>       0.00833333 </v>
  </varray>
 </kpoints>
 <parameters>
  <separator name="general" >
   <i type="string" name="SYSTEM">Simulation for cell shape cell volume r</i>
   <i type="logical" name="LCOMPAT"> F  </i>
  </separator>
  <separator name="electronic" >
   <i type="string" name="PREC">high</i>
   <i name="ENMAX">    500.00000000</i>
   <i name="ENAUG">    644.87300000</i>
   <i name="EDIFF">      0.00001000</i>
   <i type="int" name="IALGO">    38</i>
   <i type="int" name="IWAVPR">    10</i>
   <i type="int" name="NBANDS">   192</i>
   <i name="NELECT">    282.00000000</i>
   <i type="int" name="TURBO">     0</i>
   <i type="int" name="IRESTART">     0</i>
   <i type="int" name="NREBOOT">     0</i>
   <i type="int" name="NMIN">     0</i>
   <i name="EREF">      0.00000000</i>
   <separator name="electronic smearing" >
    <i type="int" name="ISMEAR">     0</i>
    <i name="SIGMA">      0.01000000</i>
    <i name="KSPACING">      0.50000000</i>
    <i type="logical" name="KGAMMA"> T  </i>
   </separator>
   <separator name="electronic projectors" >
    <i type="logical" name="LREAL"> T  </i>
    <v name="ROPT">     -0.00040000     -0.00040000     -0.00040000     -0.00040000</v>
    <i type="int" name="LMAXPAW">  -100</i>
    <i type="int" name="LMAXMIX">     2</i>
    <i type="logical" name="NLSPLINE"> F  </i>
   </separator>
   <separator name="electronic startup" >
    <i type="int" name="ISTART">     1</i>
    <i type="int" name="ICHARG">    11</i>
    <i type="int" name="INIWAV">     1</i>
   </separator>
   <separator name="electronic spin" >
    <i type="int" name="ISPIN">     1</i>
    <i type="logical" name="LNONCOLLINEAR"> F  </i>
    <v name="MAGMOM">      1.00000000      1.00000000      1.00000000      1.00000000      1.00000000      1.00000000      1.00000000      1.00000000      1.00000000      1.00000000      1.00000000      1.00000000      1.00000000      1.00000000      1.00000000      1.00000000      1.00000000      1.00000000      1.00000000      1.00000000
      1.00000000      1.00000000      1.00000000      1.00000000      1.00000000      1.00000000      1.00000000      1.00000000      1.00000000      1.00000000      1.00000000      1.00000000      1.00000000      1.00000000      1.00000000      1.00000000      1.00000000      1.00000000      1.00000000      1.00000000
      1.00000000      1.00000000      1.00000000      1.00000000      1.00000000      1.00000000      1.00000000      1.00000000      1.00000000      1.00000000      1.00000000      1.00000000      1.00000000      1.00000000      1.00000000      1.00000000      1.00000000      1.00000000      1.00000000      1.00000000
      1.00000000      1.00000000      1.00000000      1.00000000      1.00000000      1.00000000      1.00000000      1.00000000      1.00000000      1.00000000      1.00000000      1.00000000      1.00000000      1.00000000      1.00000000      1.00000000      1.00000000      1.00000000</v>
    <i name="NUPDOWN">     -1.00000000</i>
    <i type="logical" name="LSORBIT"> F  </i>
    <v name="SAXIS">      0.00000000      0.00000000      1.00000000</v>
    <i type="logical" name="LSPIRAL"> F  </i>
    <v name="QSPIRAL">      0.00000000      0.00000000      0.00000000</v>
    <i type="logical" name="LZEROZ"> F  </i>
   </separator>
   <separator name="electronic exchange-correlation" >
    <i type="logical" name="LASPH"> F  </i>
    <i type="logical" name="LMETAGGA"> F  </i>
   </separator>
   <separator name="electronic convergence" >
    <i type="int" name="NELM">   200</i>
    <i type="int" name="NELMDL">     0</i>
    <i type="int" name="NELMIN">     2</i>
    <i name="ENINI">    500.00000000</i>
    <separator name="electronic convergence detail" >
     <i type="logical" name="LDIAG"> T  </i>
     <i type="logical" name="LSUBROT"> F  </i>
     <i name="WEIMIN">      0.00000000</i>
     <i name="EBREAK">      0.00000001</i>
     <i name="DEPER">      0.30000000</i>
     <i type="int" name="NRMM">     4</i>
     <i name="TIME">      0.40000000</i>
    </separator>
   </separator>
   <separator name="electronic mixer" >
    <i name="AMIX">      0.40000000</i>
    <i name="BMIX">      1.00000000</i>
    <i name="AMIN">      0.10000000</i>
    <i name="AMIX_MAG">      1.60000000</i>
    <i name="BMIX_MAG">      1.00000000</i>
    <separator name="electronic mixer details" >
     <i type="int" name="IMIX">     4</i>
     <i type="logical" name="MIXFIRST"> F  </i>
     <i type="int" name="MAXMIX">   -45</i>
     <i name="WC">    100.00000000</i>
     <i type="int" name="INIMIX">     1</i>
     <i type="int" name="MIXPRE">     1</i>
     <i type="int" name="MREMOVE">     5</i>
    </separator>
   </separator>
   <separator name="electronic dipolcorrection" >
    <i type="logical" name="LDIPOL"> F  </i>
    <i type="logical" name="LMONO"> F  </i>
    <i type="int" name="IDIPOL">     0</i>
    <i name="EPSILON">      1.00000000</i>
    <v name="DIPOL">   -100.00000000   -100.00000000   -100.00000000</v>
    <i name="EFIELD">      0.00000000</i>
   </separator>
  </separator>
  <separator name="grids" >
   <i type="int" name="NGX">   160</i>
   <i type="int" name="NGY">   160</i>
   <i type="int" name="NGZ">   150</i>
   <i type="int" name="NGXF">   240</i>
   <i type="int" name="NGYF">   240</i>
   <i type="int" name="NGZF">   224</i>
   <i type="logical" name="ADDGRID"> F  </i>
  </separator>
  <separator name="ionic" >
   <i type="int" name="NSW">     0</i>
   <i type="int" name="IBRION">    -1</i>
   <i type="int" name="MDALGO">     0</i>
   <i type="int" name="ISIF">     2</i>
   <i name="PSTRESS">      0.00000000</i>
   <i name="EDIFFG">     -0.01000000</i>
   <i type="int" name="NFREE">     0</i>
   <i name="POTIM">      0.30000000</i>
   <i name="SMASS">     -3.00000000</i>
   <i name="SCALEE">      1.00000000</i>
  </separator>
  <separator name="ionic md" >
   <i name="TEBEG">      0.00010000</i>
   <i name="TEEND">      0.00010000</i>
   <i type="int" name="NBLOCK">     1</i>
   <i type="int" name="KBLOCK">     1</i>
   <i type="int" name="NPACO">   256</i>
   <i name="APACO">     16.00000000</i>
  </separator>
  <separator name="symmetry" >
   <i type="int" name="ISYM">     2</i>
   <i name="SYMPREC">      0.00001000</i>
  </separator>
  <separator name="dos" >
   <i type="int" name="LORBIT">     0</i>
   <v name="RWIGS">     -1.00000000     -1.00000000     -1.00000000     -1.00000000</v>
   <i type="int" name="NEDOS">   301</i>
   <i name="EMIN">     10.00000000</i>
   <i name="EMAX">    -10.00000000</i>
   <i name="EFERMI">      0.00000000</i>
  </separator>
  <separator name="writing" >
   <i type="int" name="NWRITE">     0</i>
   <i type="logical" name="LWAVE"> F  </i>
   <i type="logical" name="LDOWNSAMPLE"> F  </i>
   <i type="logical" name="LCHARG"> F  </i>
   <i type="logical" name="LPARD"> F  </i>
   <i type="logical" name="LVTOT"> F  </i>
   <i type="logical" name="LVHAR"> F  </i>
   <i type="logical" name="LELF"> F  </i>
   <i type="logical" name="LOPTICS"> F  </i>
   <v name="STM">      0.00000000      0.00000000      0.00000000      0.00000000      0.00000000      0.00000000      0.00000000</v>
  </separator>
  <separator name="performance" >
   <i type="int" name="NPAR">    16</i>
   <i type="int" name="NSIM">     4</i>
   <i type="int" name="NBLK">    -1</i>
   <i type="logical" name="LPLANE"> T  </i>
   <i type="logical" name="LSCALAPACK"> T  </i>
   <i type="logical" name="LSCAAWARE"> F  </i>
   <i type="logical" name="LSCALU"> F  </i>
   <i type="logical" name="LASYNC"> F  </i>
   <i type="logical" name="LORBITALREAL"> F  </i>
  </separator>
  <separator name="miscellaneous" >
   <i type="int" name="IDIOT">     3</i>
   <i type="int" name="ISPECIAL">     0</i>
   <i type="logical" name="LMUSIC"> F  </i>
   <v name="POMASS">     12.01100000      1.00000000     14.00100000     16.00000000</v>
   <v name="DARWINR">      0.00000000      0.00000000      0.00000000      0.00000000</v>
   <v name="DARWINV">      1.00000000      1.00000000      1.00000000      1.00000000</v>
   <i type="logical" name="LCORR"> T  </i>
  </separator>
  <i type="logical" name="GGA_COMPAT"> T  </i>
  <i type="logical" name="LBERRY"> F  </i>
  <i type="int" name="ICORELEVEL">     0</i>
  <i type="logical" name="LDAU"> F  </i>
  <i type="int" name="I_CONSTRAINED_M">     0</i>
  <separator name="electronic exchange-correlation" >
   <i type="string" name="GGA">PE</i>
   <i type="int" name="VOSKOWN">     0</i>
   <i type="logical" name="LHFCALC"> F  </i>
   <i type="string" name="PRECFOCK"></i>
   <i type="logical" name="LSYMGRAD"> F  </i>
   <i type="logical" name="LHFONE"> F  </i>
   <i type="logical" name="LRHFCALC"> F  </i>
   <i type="logical" name="LTHOMAS"> F  </i>
   <i type="logical" name="LMODELHF"> F  </i>
   <i name="ENCUT4O">     -1.00000000</i>
   <i type="int" name="EXXOEP">     0</i>
   <i type="int" name="FOURORBIT">     0</i>
   <i name="AEXX">      0.00000000</i>
   <i name="HFALPHA">      0.00000000</i>
   <i name="MCALPHA">      0.00000000</i>
   <i name="ALDAX">      1.00000000</i>
   <i name="AGGAX">      1.00000000</i>
   <i name="ALDAC">      1.00000000</i>
   <i name="AGGAC">      1.00000000</i>
   <i type="int" name="NKREDX">     1</i>
   <i type="int" name="NKREDY">     1</i>
   <i type="int" name="NKREDZ">     1</i>
   <i type="logical" name="SHIFTRED"> F  </i>
   <i type="logical" name="ODDONLY"> F  </i>
   <i type="logical" name="EVENONLY"> F  </i>
   <i type="int" name="LMAXFOCK">     0</i>
   <i type="int" name="NMAXFOCKAE">     0</i>
   <i type="logical" name="LFOCKAEDFT"> F  </i>
   <i name="HFSCREEN">      0.00000000</i>
   <i name="HFSCREENC">      0.00000000</i>
   <i type="int" name="NBANDSGWLOW">     0</i>
  </separator>
  <separator name="vdW DFT" >
   <i type="logical" name="LUSE_VDW"> F  </i>
   <i name="Zab_VDW">     -0.84910000</i>
   <i name="PARAM1">      0.12340000</i>
   <i name="PARAM2">      1.00000000</i>
   <i name="PARAM3">      0.00000000</i>
  </separator>
  <separator name="model GW" >
   <i type="int" name="MODEL_GW">     0</i>
   <i name="MODEL_EPS0">     62.99133209</i>
   <i name="MODEL_ALPHA">      1.00000000</i>
  </separator>
  <separator name="linear response parameters" >
   <i type="logical" name="LEPSILON"> F  </i>
   <i type="logical" name="LRPA"> F  </i>
   <i type="logical" name="LNABLA"> F  </i>
   <i type="logical" name="LVEL"> F  </i>
   <i type="int" name="KINTER">     0</i>
   <i name="CSHIFT">      0.10000000</i>
   <i name="OMEGAMAX">     -1.00000000</i>
   <i name="DEG_THRESHOLD">      0.00200000</i>
   <i name="RTIME">     -0.10000000</i>
   <i name="WPLASMAI">      0.00000000</i>
   <v name="DFIELD">      0.00000000      0.00000000      0.00000000</v>
   <v name="WPLASMA">      0.00000000      0.00000000      0.00000000      0.00000000      0.00000000      0.00000000      0.00000000      0.00000000      0.00000000</v>
  </separator>
  <separator name="orbital magnetization" >
   <i type="logical" name="NUCIND"> F  </i>
   <v name="MAGPOS">      0.00000000      0.00000000      0.00000000</v>
   <i type="logical" name="LNICSALL"> T  </i>
   <i type="logical" name="ORBITALMAG"> F  </i>
   <i type="logical" name="LMAGBLOCH"> F  </i>
   <i type="logical" name="LCHIMAG"> F  </i>
   <i type="logical" name="LGAUGE"> T  </i>
   <i type="int" name="MAGATOM">     0</i>
   <v name="MAGDIPOL">      0.00000000      0.00000000      0.00000000</v>
   <v name="AVECCONST">      0.00000000      0.00000000      0.00000000</v>
  </separator>
  <separator name="response functions" >
   <i type="logical" name="LADDER"> F  </i>
   <i type="logical" name="LRPAFORCE"> F  </i>
   <i type="logical" name="LFXC"> F  </i>
   <i type="logical" name="LHARTREE"> T  </i>
   <i type="int" name="IBSE">     0</i>
   <v type="int" name="KPOINT">    -1     0     0     0</v>
   <i type="logical" name="LTCTE"> F  </i>
   <i type="logical" name="LTETE"> F  </i>
   <i type="logical" name="LTRIPLET"> F  </i>
   <i type="logical" name="LFXCEPS"> F  </i>
   <i type="logical" name="LFXHEG"> F  </i>
   <i type="int" name="NATURALO">     2</i>
   <i type="logical" name="L2ORDER"> F  </i>
   <i type="logical" name="LMP2LT"> F  </i>
   <i type="logical" name="LUSEW"> F  </i>
   <i name="ENCUTGW">     -2.00000000</i>
   <i name="ENCUTGWSOFT">     -2.00000000</i>
   <i name="ENCUTLF">     -1.00000000</i>
   <i type="int" name="LMAXMP2">    -1</i>
   <i name="SCISSOR">      0.00000000</i>
   <i type="int" name="NOMEGA">     0</i>
   <i type="int" name="NOMEGAR">     0</i>
   <i type="int" name="NBANDSGW">    -1</i>
   <i type="int" name="NBANDSO">    -1</i>
   <i type="int" name="NBANDSV">    -1</i>
   <i type="int" name="NELM">   200</i>
   <i type="int" name="NELMHF">     1</i>
   <i type="int" name="DIM">     3</i>
   <i type="int" name="ANTIRES">     0</i>
   <i name="OMEGAMAX">    -30.00000000</i>
   <i name="OMEGAMIN">    -30.00000000</i>
   <i name="OMEGATL">   -200.00000000</i>
   <i type="int" name="OMEGAGRID">   140</i>
   <i name="CSHIFT">     -0.10000000</i>
   <i type="logical" name="SELFENERGY"> F  </i>
   <i type="logical" name="LSPECTRAL"> F  </i>
   <i type="logical" name="LSPECTRALGW"> F  </i>
   <i type="logical" name="LSINGLES"> F  </i>
   <i type="logical" name="LFERMIGW"> F  </i>
   <i type="logical" name="ODDONLYGW"> F  </i>
   <i type="logical" name="EVENONLYGW"> F  </i>
   <i type="int" name="NKREDLFX">     1</i>
   <i type="int" name="NKREDLFY">     1</i>
   <i type="int" name="NKREDLFZ">     1</i>
   <i type="int" name="MAXMEM">  2800</i>
   <i type="int" name="TELESCOPE">     0</i>
   <i type="int" name="TAUPAR">     1</i>
   <i type="int" name="OMEGAPAR">    -1</i>
   <i name="LAMBDA">      1.00000000</i>
  </separator>
  <separator name="External order field" >
   <i name="OFIELD_KAPPA">      0.00000000</i>
   <v name="OFIELD_K">      0.00000000      0.00000000      0.00000000</v>
   <i name="OFIELD_Q6_NEAR">      0.00000000</i>
   <i name="OFIELD_Q6_FAR">      0.00000000</i>
   <i name="OFIELD_A">      0.00000000</i>
  </separator>
  <separator name="solvation model" >
   <i type="logical" name="LSOL"> F  </i>
  </separator>
 </parameters>
 <atominfo>
  <atoms>      78 </atoms>
  <types>       4 </types>
  <array name="atoms" >
   <dimension dim="1">ion</dimension>
   <field type="string">element</field>
   <field type="int">atomtype</field>
   <set>
    <rc><c>C </c><c>   1</c></rc>
    <rc><c>C </c><c>   1</c></rc>
    <rc><c>C </c><c>   1</c></rc>
    <rc><c>C </c><c>   1</c></rc>
    <rc><c>C </c><c>   1</c></rc>
    <rc><c>C </c><c>   1</c></rc>
    <rc><c>C </c><c>   1</c></rc>
    <rc><c>C </c><c>   1</c></rc>
    <rc><c>C </c><c>   1</c></rc>
    <rc><c>C </c><c>   1</c></rc>
    <rc><c>C </c><c>   1</c></rc>
    <rc><c>C </c><c>   1</c></rc>
    <rc><c>C </c><c>   1</c></rc>
    <rc><c>C </c><c>   1</c></rc>
    <rc><c>C </c><c>   1</c></rc>
    <rc><c>C </c><c>   1</c></rc>
    <rc><c>C </c><c>   1</c></rc>
    <rc><c>C </c><c>   1</c></rc>
    <rc><c>C </c><c>   1</c></rc>
    <rc><c>C </c><c>   1</c></rc>
    <rc><c>C </c><c>   1</c></rc>
    <rc><c>C </c><c>   1</c></rc>
    <rc><c>C </c><c>   1</c></rc>
    <rc><c>C </c><c>   1</c></rc>
    <rc><c>C </c><c>   1</c></rc>
    <rc><c>C </c><c>   1</c></rc>
    <rc><c>C </c><c>   1</c></rc>
    <rc><c>C </c><c>   1</c></rc>
    <rc><c>C </c><c>   1</c></rc>
    <rc><c>C </c><c>   1</c></rc>
    <rc><c>C </c><c>   1</c></rc>
    <rc><c>C </c><c>   1</c></rc>
    <rc><c>C </c><c>   1</c></rc>
    <rc><c>C </c><c>   1</c></rc>
    <rc><c>C </c><c>   1</c></rc>
    <rc><c>C </c><c>   1</c></rc>
    <rc><c>C </c><c>   1</c></rc>
    <rc><c>C </c><c>   1</c></rc>
    <rc><c>C </c><c>   1</c></rc>
    <rc><c>C </c><c>   1</c></rc>
    <rc><c>C </c><c>   1</c></rc>
    <rc><c>C </c><c>   1</c></rc>
    <rc><c>H </c><c>   2</c></rc>
    <rc><c>H </c><c>   2</c></rc>
    <rc><c>H </c><c>   2</c></rc>
    <rc><c>H </c><c>   2</c></rc>
    <rc><c>H </c><c>   2</c></rc>
    <rc><c>H </c><c>   2</c></rc>
    <rc><c>H </c><c>   2</c></rc>
    <rc><c>H </c><c>   2</c></rc>
    <rc><c>H </c><c>   2</c></rc>
    <rc><c>H </c><c>   2</c></rc>
    <rc><c>H </c><c>   2</c></rc>
    <rc><c>H </c><c>   2</c></rc>
    <rc><c>H </c><c>   2</c></rc>
    <rc><c>H </c><c>   2</c></rc>
    <rc><c>H </c><c>   2</c></rc>
    <rc><c>H </c><c>   2</c></rc>
    <rc><c>H </c><c>   2</c></rc>
    <rc><c>H </c><c>   2</c></rc>
    <rc><c>N </c><c>   3</c></rc>
    <rc><c>N </c><c>   3</c></rc>
    <rc><c>N </c><c>   3</c></rc>
    <rc><c>N </c><c>   3</c></rc>
    <rc><c>N </c><c>   3</c></rc>
    <rc><c>N </c><c>   3</c></rc>
    <rc><c>N </c><c>   3</c></rc>
    <rc><c>N </c><c>   3</c></rc>
    <rc><c>N </c><c>   3</c></rc>
    <rc><c>N </c><c>   3</c></rc>
    <rc><c>N </c><c>   3</c></rc>
    <rc><c>N </c><c>   3</c></rc>
    <rc><c>O </c><c>   4</c></rc>
    <rc><c>O </c><c>   4</c></rc>
    <rc><c>O </c><c>   4</c></rc>
    <rc><c>O </c><c>   4</c></rc>
    <rc><c>O </c><c>   4</c></rc>
    <rc><c>O </c><c>   4</c></rc>
   </set>
  </array>
  <array name="atomtypes" >
   <dimension dim="1">type</dimension>
   <field type="int">atomspertype</field>
   <field type="string">element</field>
   <field>mass</field>
   <field>valence</field>
   <field type="string">pseudopotential</field>
   <set>
    <rc><c>  42</c><c>C </c><c>     12.01100000</c><c>      4.00000000</c><c>  PAW_PBE C 08Apr2002                   </c></rc>
    <rc><c>  18</c><c>H </c><c>      1.00000000</c><c>      1.00000000</c><c>  PAW_PBE H 15Jun2001                   </c></rc>
    <rc><c>  12</c><c>N </c><c>     14.00100000</c><c>      5.00000000</c><c>  PAW_PBE N 08Apr2002                   </c></rc>
    <rc><c>   6</c><c>O </c><c>     16.00000000</c><c>      6.00000000</c><c>  PAW_PBE O 08Apr2002                   </c></rc>
   </set>
  </array>
 </atominfo>
 <structure name="initialpos" >
  <crystal>
   <varray name="basis" >
    <v>      21.67819676       0.02712673       0.00000000 </v>
    <v>     -10.81055245      18.87382093       0.00000000 </v>
    <v>       0.00000000       0.00000000      20.00000000 </v>
   </varray>
   <i name="volume">   8188.87317186 </i>
   <varray name="rec_basis" >
    <v>       0.04609626       0.02640303       0.00000000 </v>
    <v>      -0.00006625       0.05294549       0.00000000 </v>
    <v>       0.00000000       0.00000000       0.05000000 </v>
   </varray>
  </crystal>
  <varray name="positions" >
   <v>       0.07407263       0.54737290       0.54319438 </v>
   <v>       0.11121395       0.51230212       0.56673010 </v>
   <v>       0.07258571       0.44098045       0.59023428 </v>
   <v>       0.17907507       0.65098577       0.52423351 </v>
   <v>       0.22093148       0.62033722       0.54311345 </v>
   <v>       0.18590716       0.55043993       0.56462688 </v>
   <v>       0.29917899       0.66036519       0.53865857 </v>
   <v>       0.40457524       0.66119967       0.53343095 </v>
   <v>       0.40284032       0.76477830       0.53072754 </v>
   <v>       0.66857879       0.39584572       0.53192483 </v>
   <v>       0.77218773       0.39362183       0.53114670 </v>
   <v>       0.66706672       0.29043996       0.53405467 </v>
   <v>       0.44041008       0.84281432       0.53088441 </v>
   <v>       0.51450076       0.98915596       0.53265108 </v>
   <v>       0.44030717       0.95278078       0.54958910 </v>
   <v>       0.40414774       0.87838164       0.54745390 </v>
   <v>       0.55329072       0.06604551       0.53373760 </v>
   <v>       0.62606890       0.21231859       0.53506861 </v>
   <v>       0.55431340       0.17732839       0.55104866 </v>
   <v>       0.51626100       0.10286061       0.55132933 </v>
   <v>       0.44258550       0.06467962       0.56885669 </v>
   <v>       0.40591959       0.99185103       0.56811265 </v>
   <v>       0.44324583       0.62124612       0.53329606 </v>
   <v>       0.51776902       0.54836936       0.53308243 </v>
   <v>       0.44277279       0.51027381       0.54636827 </v>
   <v>       0.40669329       0.54896375       0.54605511 </v>
   <v>       0.55647834       0.50966253       0.53341801 </v>
   <v>       0.62865846       0.43459790       0.53300490 </v>
   <v>       0.55626351       0.39830311       0.54624210 </v>
   <v>       0.51850120       0.43533053       0.54715326 </v>
   <v>       0.44373200       0.39938239       0.56033552 </v>
   <v>       0.40711133       0.43590918       0.55936348 </v>
   <v>       0.99697961       0.50753665       0.53991303 </v>
   <v>       0.85055030       0.43131034       0.53369857 </v>
   <v>       0.88619219       0.39692892       0.55591505 </v>
   <v>       0.96076172       0.43495536       0.56031776 </v>
   <v>       0.99970890       0.40284038       0.58633792 </v>
   <v>       0.51378977       0.88387584       0.51562370 </v>
   <v>       0.65810929       0.17087203       0.51928757 </v>
   <v>       0.51729190       0.65371583       0.52086184 </v>
   <v>       0.66163729       0.50853567       0.52089637 </v>
   <v>       0.89138069       0.50367592       0.51533667 </v>
   <v>       0.14964648       0.43903215       0.63812073 </v>
   <v>       0.21767348       0.52607331       0.57819310 </v>
   <v>       0.20539648       0.70617547       0.50793094 </v>
   <v>       0.34754554       0.84620439       0.55870417 </v>
   <v>       0.52780516       0.20723099       0.56340482 </v>
   <v>       0.36078241       0.06893110       0.59699093 </v>
   <v>       0.31374755       0.90913121       0.58591048 </v>
   <v>       0.34986024       0.52434751       0.55629308 </v>
   <v>       0.52906864       0.34159445       0.55578809 </v>
   <v>       0.35998042       0.31210335       0.57908374 </v>
   <v>       0.31106921       0.42122270       0.55625218 </v>
   <v>       0.85657215       0.34146029       0.57061907 </v>
   <v>       0.99628598       0.32125191       0.62499876 </v>
   <v>       0.54353518       0.85721460       0.50234715 </v>
   <v>       0.71453398       0.19746144       0.50653888 </v>
   <v>       0.54748091       0.71050154       0.51075368 </v>
   <v>       0.71864660       0.53826943       0.51071005 </v>
   <v>       0.86420565       0.53162353       0.49786581 </v>
   <v>       0.10875919       0.61582107       0.52335954 </v>
   <v>       0.33338803       0.62305695       0.53925177 </v>
   <v>       0.33133673       0.73123193       0.53442207 </v>
   <v>       0.44188245       0.73223509       0.52853015 </v>
   <v>       0.74001725       0.43299313       0.52900355 </v>
   <v>       0.73838989       0.32237884       0.53281948 </v>
   <v>       0.62999740       0.32486706       0.53470744 </v>
   <v>       0.54908990       0.95395679       0.51592827 </v>
   <v>       0.62330234       0.10081398       0.51811953 </v>
   <v>       0.55292932       0.61877301       0.52061583 </v>
   <v>       0.62715318       0.54459488       0.52063719 </v>
   <v>       0.96160353       0.54022026       0.51753245 </v>
   <v>       0.10576401       0.40555995       0.61578118 </v>
   <v>       0.41035589       0.10262198       0.58643723 </v>
   <v>       0.33535808       0.96043187       0.58616320 </v>
   <v>       0.41053796       0.32844763       0.57305503 </v>
   <v>       0.33522880       0.39674370       0.57301914 </v>
   <v>       0.96224043       0.33436485       0.60753762 </v>
  </varray>
 </structure>
 <calculation>
  <scstep>
   <time name="dav">  235.06  237.01</time>
   <time name="total">  235.22  237.17</time>
   <energy>
    <i name="alphaZ">     44.90361988 </i>
    <i name="ewald">  33224.23985611 </i>
    <i name="hartreedc"> -43279.80949016 </i>
    <i name="XCdc">   1041.01830025 </i>
    <i name="pawpsdc">  26904.94143181 </i>
    <i name="pawaedc"> -26962.96117740 </i>
    <i name="eentropy">     -0.00000000 </i>
    <i name="bandstr">  -3727.12940389 </i>
    <i name="atom">  12173.54624914 </i>
    <i name="e_fr_energy">   -581.25061426 </i>
    <i name="e_wo_entrp">   -581.25061426 </i>
    <i name="e_0_energy">   -581.25061426 </i>
   </energy>
  </scstep>
  <scstep>
   <time name="dav">  269.77  272.00</time>
   <time name="total">  269.79  272.02</time>
   <energy>
    <i name="e_fr_energy">   -582.25029168 </i>
    <i name="e_wo_entrp">   -582.25029168 </i>
    <i name="e_0_energy">   -582.25029168 </i>
   </energy>
  </scstep>
  <scstep>
   <time name="dav">  300.74  303.20</time>
   <time name="total">  300.76  303.22</time>
   <energy>
    <i name="e_fr_energy">   -582.27716923 </i>
    <i name="e_wo_entrp">   -582.27716923 </i>
    <i name="e_0_energy">   -582.27716923 </i>
   </energy>
  </scstep>
  <scstep>
   <time name="dav">  266.58  268.77</time>
   <time name="total">  266.59  268.79</time>
   <energy>
    <i name="e_fr_energy">   -582.27766450 </i>
    <i name="e_wo_entrp">   -582.27766450 </i>
    <i name="e_0_energy">   -582.27766450 </i>
   </energy>
  </scstep>
  <scstep>
   <time name="dav">  276.08  278.33</time>
   <time name="total">  276.09  278.34</time>
   <energy>
    <i name="e_fr_energy">   -582.27769023 </i>
    <i name="e_wo_entrp">   -582.27769023 </i>
    <i name="e_0_energy">   -582.27769023 </i>
   </energy>
  </scstep>
  <scstep>
   <time name="dav">  217.79  219.55</time>
   <time name="total">  217.80  219.57</time>
   <energy>
    <i name="alphaZ">     44.90361988 </i>
    <i name="ewald">  33224.23985611 </i>
    <i name="hartreedc"> -43279.80949016 </i>
    <i name="XCdc">   1041.01830025 </i>
    <i name="pawpsdc">  26904.94143181 </i>
    <i name="pawaedc"> -26962.96117740 </i>
    <i name="eentropy">     -0.00000000 </i>
    <i name="bandstr">  -3728.15648059 </i>
    <i name="atom">  12173.54624914 </i>
    <i name="e_fr_energy">   -582.27769096 </i>
    <i name="e_wo_entrp">   -582.27769096 </i>
    <i name="e_0_energy">   -582.27769096 </i>
   </energy>
  </scstep>
  <structure>
   <crystal>
    <varray name="basis" >
     <v>      21.67819676       0.02712673       0.00000000 </v>
     <v>     -10.81055245      18.87382093       0.00000000 </v>
     <v>       0.00000000       0.00000000      20.00000000 </v>
    </varray>
    <i name="volume">   8188.87317186 </i>
    <varray name="rec_basis" >
     <v>       0.04609626       0.02640303       0.00000000 </v>
     <v>      -0.00006625       0.05294549       0.00000000 </v>
     <v>       0.00000000       0.00000000       0.05000000 </v>
    </varray>
   </crystal>
   <varray name="positions" >
    <v>       0.07407263       0.54737290       0.54319438 </v>
    <v>       0.11121395       0.51230212       0.56673010 </v>
    <v>       0.07258571       0.44098045       0.59023428 </v>
    <v>       0.17907507       0.65098577       0.52423351 </v>
    <v>       0.22093148       0.62033722       0.54311345 </v>
    <v>       0.18590716       0.55043993       0.56462688 </v>
    <v>       0.29917899       0.66036519       0.53865857 </v>
    <v>       0.40457524       0.66119967       0.53343095 </v>
    <v>       0.40284032       0.76477830       0.53072754 </v>
    <v>       0.66857879       0.39584572       0.53192483 </v>
    <v>       0.77218773       0.39362183       0.53114670 </v>
    <v>       0.66706672       0.29043996       0.53405467 </v>
    <v>       0.44041008       0.84281432       0.53088441 </v>
    <v>       0.51450076       0.98915596       0.53265108 </v>
    <v>       0.44030717       0.95278078       0.54958910 </v>
    <v>       0.40414774       0.87838164       0.54745390 </v>
    <v>       0.55329072       0.06604551       0.53373760 </v>
    <v>       0.62606890       0.21231859       0.53506861 </v>
    <v>       0.55431340       0.17732839       0.55104866 </v>
    <v>       0.51626100       0.10286061       0.55132933 </v>
    <v>       0.44258550       0.06467962       0.56885669 </v>
    <v>       0.40591959       0.99185103       0.56811265 </v>
    <v>       0.44324583       0.62124612       0.53329606 </v>
    <v>       0.51776902       0.54836936       0.53308243 </v>
    <v>       0.44277279       0.51027381       0.54636827 </v>
    <v>       0.40669329       0.54896375       0.54605511 </v>
    <v>       0.55647834       0.50966253       0.53341801 </v>
    <v>       0.62865846       0.43459790       0.53300490 </v>
    <v>       0.55626351       0.39830311       0.54624210 </v>
    <v>       0.51850120       0.43533053       0.54715326 </v>
    <v>       0.44373200       0.39938239       0.56033552 </v>
    <v>       0.40711133       0.43590918       0.55936348 </v>
    <v>       0.99697961       0.50753665       0.53991303 </v>
    <v>       0.85055030       0.43131034       0.53369857 </v>
    <v>       0.88619219       0.39692892       0.55591505 </v>
    <v>       0.96076172       0.43495536       0.56031776 </v>
    <v>       0.99970890       0.40284038       0.58633792 </v>
    <v>       0.51378977       0.88387584       0.51562370 </v>
    <v>       0.65810929       0.17087203       0.51928757 </v>
    <v>       0.51729190       0.65371583       0.52086184 </v>
    <v>       0.66163729       0.50853567       0.52089637 </v>
    <v>       0.89138069       0.50367592       0.51533667 </v>
    <v>       0.14964648       0.43903215       0.63812073 </v>
    <v>       0.21767348       0.52607331       0.57819310 </v>
    <v>       0.20539648       0.70617547       0.50793094 </v>
    <v>       0.34754554       0.84620439       0.55870417 </v>
    <v>       0.52780516       0.20723099       0.56340482 </v>
    <v>       0.36078241       0.06893110       0.59699093 </v>
    <v>       0.31374755       0.90913121       0.58591048 </v>
    <v>       0.34986024       0.52434751       0.55629308 </v>
    <v>       0.52906864       0.34159445       0.55578809 </v>
    <v>       0.35998042       0.31210335       0.57908374 </v>
    <v>       0.31106921       0.42122270       0.55625218 </v>
    <v>       0.85657215       0.34146029       0.57061907 </v>
    <v>       0.99628598       0.32125191       0.62499876 </v>
    <v>       0.54353518       0.85721460       0.50234715 </v>
    <v>       0.71453398       0.19746144       0.50653888 </v>
    <v>       0.54748091       0.71050154       0.51075368 </v>
    <v>       0.71864660       0.53826943       0.51071005 </v>
    <v>       0.86420565       0.53162353       0.49786581 </v>
    <v>       0.10875919       0.61582107       0.52335954 </v>
    <v>       0.33338803       0.62305695       0.53925177 </v>
    <v>       0.33133673       0.73123193       0.53442207 </v>
    <v>       0.44188245       0.73223509       0.52853015 </v>
    <v>       0.74001725       0.43299313       0.52900355 </v>
    <v>       0.73838989       0.32237884       0.53281948 </v>
    <v>       0.62999740       0.32486706       0.53470744 </v>
    <v>       0.54908990       0.95395679       0.51592827 </v>
    <v>       0.62330234       0.10081398       0.51811953 </v>
    <v>       0.55292932       0.61877301       0.52061583 </v>
    <v>       0.62715318       0.54459488       0.52063719 </v>
    <v>       0.96160353       0.54022026       0.51753245 </v>
    <v>       0.10576401       0.40555995       0.61578118 </v>
    <v>       0.41035589       0.10262198       0.58643723 </v>
    <v>       0.33535808       0.96043187       0.58616320 </v>
    <v>       0.41053796       0.32844763       0.57305503 </v>
    <v>       0.33522880       0.39674370       0.57301914 </v>
    <v>       0.96224043       0.33436485       0.60753762 </v>
   </varray>
  </structure>
  <varray name="forces" >
   <v>      -0.00029554      -0.00305090      -0.00453944 </v>
   <v>       0.00408911      -0.00104449       0.00223877 </v>
   <v>      -0.00047074      -0.00066072       0.00146109 </v>
   <v>       0.00253172      -0.00098128      -0.00035165 </v>
   <v>       0.00302827       0.00279572      -0.00031711 </v>
   <v>       0.00553206       0.00215301      -0.00107772 </v>
   <v>      -0.00624131      -0.00341442      -0.00163519 </v>
   <v>       0.00097136       0.00070517      -0.00050054 </v>
   <v>       0.00126855      -0.00251439      -0.00078434 </v>
   <v>      -0.00835122       0.00213949      -0.00530818 </v>
   <v>      -0.00325976       0.00404679       0.00217206 </v>
   <v>       0.00228899      -0.00848297       0.00025073 </v>
   <v>       0.00073967      -0.00224622      -0.00739191 </v>
   <v>       0.00342939       0.00198930       0.00737589 </v>
   <v>      -0.00094629      -0.00108194      -0.00048790 </v>
   <v>      -0.00094131       0.00041616      -0.00006095 </v>
   <v>      -0.00585640      -0.00393070       0.00049360 </v>
   <v>      -0.00373975       0.00919122       0.00552734 </v>
   <v>      -0.00545224      -0.00399911       0.00266513 </v>
   <v>      -0.00594378       0.00612627      -0.00045613 </v>
   <v>       0.00136710       0.00272432       0.00450172 </v>
   <v>       0.00190908      -0.00500915      -0.00187648 </v>
   <v>      -0.00644751       0.00370395      -0.00293957 </v>
   <v>       0.00551253       0.00668204      -0.00029113 </v>
   <v>      -0.00712890       0.00423061      -0.00514451 </v>
   <v>      -0.00377666      -0.00580540      -0.00001724 </v>
   <v>      -0.00233038       0.00174794       0.00060821 </v>
   <v>       0.00120103      -0.00554585       0.00007612 </v>
   <v>      -0.00098370      -0.00493611       0.00274773 </v>
   <v>       0.00089799      -0.00539945       0.00240927 </v>
   <v>       0.00543846       0.00446519      -0.00342194 </v>
   <v>      -0.00196756      -0.00330952      -0.00162613 </v>
   <v>       0.00644381       0.00474898       0.00390053 </v>
   <v>      -0.00898409      -0.00563270       0.00477331 </v>
   <v>       0.00134413      -0.00132181       0.00132542 </v>
   <v>       0.00499153      -0.00322770       0.00064344 </v>
   <v>      -0.00616269      -0.00136056       0.00006497 </v>
   <v>       0.00267967       0.00404750       0.00002171 </v>
   <v>       0.00120108       0.00159708       0.00337572 </v>
   <v>       0.00324278      -0.00367529       0.00406263 </v>
   <v>       0.00424321       0.00523823       0.00076739 </v>
   <v>      -0.00043878       0.01056683       0.00013865 </v>
   <v>       0.00091167       0.00101292      -0.00045055 </v>
   <v>       0.00669047      -0.00364002       0.00141229 </v>
   <v>      -0.00073108       0.00498375      -0.00120334 </v>
   <v>      -0.00528803      -0.00412110       0.00321119 </v>
   <v>       0.00159896       0.00050135      -0.00005849 </v>
   <v>      -0.00187075      -0.00363397      -0.00082539 </v>
   <v>      -0.00050259       0.00183703      -0.00291767 </v>
   <v>      -0.00057575      -0.00346687      -0.00162610 </v>
   <v>       0.00077359      -0.00247435      -0.00326733 </v>
   <v>      -0.00565437      -0.00705247       0.00071357 </v>
   <v>       0.00491556      -0.00218691      -0.00345733 </v>
   <v>       0.00288505       0.00110819      -0.00210222 </v>
   <v>      -0.00164676       0.00143049      -0.00124293 </v>
   <v>      -0.00244888       0.00049025       0.00260641 </v>
   <v>       0.00535100      -0.00397999       0.00522101 </v>
   <v>       0.00128300       0.00606388       0.00056685 </v>
   <v>      -0.00508585       0.00390390      -0.00044613 </v>
   <v>       0.00091613      -0.00206636      -0.00231741 </v>
   <v>       0.00030857       0.00386475      -0.00140762 </v>
   <v>      -0.00046721      -0.00076323       0.00248325 </v>
   <v>       0.00478246      -0.00185877       0.00283645 </v>
   <v>      -0.00383723      -0.00268292       0.00465359 </v>
   <v>       0.00132102      -0.00161683      -0.00041814 </v>
   <v>       0.00413343      -0.00719907       0.00006872 </v>
   <v>      -0.00401892       0.00080337       0.00063488 </v>
   <v>       0.00124523       0.00024978       0.00250090 </v>
   <v>       0.00282165       0.00656534       0.00561410 </v>
   <v>       0.00015808       0.00043176      -0.00083930 </v>
   <v>       0.00418184       0.00219709       0.00335721 </v>
   <v>      -0.00182126       0.00356614      -0.00373314 </v>
   <v>       0.00217366      -0.00106784      -0.00138523 </v>
   <v>       0.00554320       0.00247047      -0.00493178 </v>
   <v>      -0.00133781       0.00080795      -0.00192508 </v>
   <v>       0.00346728       0.00170121      -0.00806724 </v>
   <v>      -0.00340986      -0.00248996      -0.00515285 </v>
   <v>      -0.00139844       0.00362591      -0.00147853 </v>
  </varray>
  <varray name="stress" >
   <v>      -0.00511709       0.00231610      -0.00750960 </v>
   <v>       0.00231609       0.00473821      -0.01217902 </v>
   <v>      -0.00750961      -0.01217902      -0.25223303 </v>
  </varray>
  <energy>
   <i name="e_fr_energy">   -583.90328588 </i>
   <i name="e_wo_entrp">   -583.90328588 </i>
   <i name="e_0_energy">     -0.00000000 </i>
  </energy>
  <time name="totalsc"> 1766.85 1781.68</time>
  <eigenvalues>
   <array>
    <dimension dim="1">band</dimension>
    <dimension dim="2">kpoint</dimension>
    <dimension dim="3">spin</dimension>
    <field>eigene</field>
    <field>occ</field>
    <set>
     <set comment="spin 1">
      <set comment="kpoint 1">
       <r>  -27.1670    1.0000 </r>
       <r>  -27.1500    1.0000 </r>
       <r>  -27.1027    1.0000 </r>
       <r>  -26.4662    1.0000 </r>
       <r>  -26.4344    1.0000 </r>
       <r>  -26.3721    1.0000 </r>
       <r>  -25.5995    1.0000 </r>
       <r>  -25.3770    1.0000 </r>
       <r>  -23.7320    1.0000 </r>
       <r>  -23.6575    1.0000 </r>
       <r>  -23.6262    1.0000 </r>
       <r>  -23.1757    1.0000 </r>
       <r>  -23.1169    1.0000 </r>
       <r>  -23.0496    1.0000 </r>
       <r>  -22.5881    1.0000 </r>
       <r>  -22.5633    1.0000 </r>
       <r>  -22.3644    1.0000 </r>
       <r>  -22.3406    1.0000 </r>
       <r>  -20.9233    1.0000 </r>
       <r>  -20.8767    1.0000 </r>
       <r>  -20.8317    1.0000 </r>
       <r>  -20.2054    1.0000 </r>
       <r>  -20.0961    1.0000 </r>
       <r>  -20.0626    1.0000 </r>
       <r>  -19.9836    1.0000 </r>
       <r>  -19.9365    1.0000 </r>
       <r>  -19.8447    1.0000 </r>
       <r>  -18.9561    1.0000 </r>
       <r>  -18.9289    1.0000 </r>
       <r>  -18.6585    1.0000 </r>
       <r>  -18.3082    1.0000 </r>
       <r>  -18.2732    1.0000 </r>
       <r>  -18.2369    1.0000 </r>
       <r>  -17.5481    1.0000 </r>
       <r>  -17.5423    1.0000 </r>
       <r>  -16.6929    1.0000 </r>
       <r>  -16.5611    1.0000 </r>
       <r>  -16.5137    1.0000 </r>
       <r>  -16.1869    1.0000 </r>
       <r>  -16.0604    1.0000 </r>
       <r>  -16.0096    1.0000 </r>
       <r>  -15.8743    1.0000 </r>
       <r>  -15.6857    1.0000 </r>
       <r>  -15.6364    1.0000 </r>
       <r>  -15.4594    1.0000 </r>
       <r>  -15.2891    1.0000 </r>
       <r>  -14.9514    1.0000 </r>
       <r>  -14.8465    1.0000 </r>
       <r>  -14.6648    1.0000 </r>
       <r>  -14.6125    1.0000 </r>
       <r>  -14.0770    1.0000 </r>
       <r>  -14.0566    1.0000 </r>
       <r>  -14.0403    1.0000 </r>
       <r>  -13.9727    1.0000 </r>
       <r>  -13.5424    1.0000 </r>
       <r>  -13.4156    1.0000 </r>
       <r>  -13.3926    1.0000 </r>
       <r>  -13.1799    1.0000 </r>
       <r>  -13.1027    1.0000 </r>
       <r>  -13.0118    1.0000 </r>
       <r>  -12.9172    1.0000 </r>
       <r>  -12.5892    1.0000 </r>
       <r>  -12.5575    1.0000 </r>
       <r>  -12.3868    1.0000 </r>
       <r>  -12.2105    1.0000 </r>
       <r>  -11.9484    1.0000 </r>
       <r>  -11.7475    1.0000 </r>
       <r>  -11.6646    1.0000 </r>
       <r>  -11.6333    1.0000 </r>
       <r>  -11.5359    1.0000 </r>
       <r>  -11.4229    1.0000 </r>
       <r>  -11.3757    1.0000 </r>
       <r>  -11.2989    1.0000 </r>
       <r>  -11.1358    1.0000 </r>
       <r>  -11.1003    1.0000 </r>
       <r>  -11.0276    1.0000 </r>
       <r>  -10.9547    1.0000 </r>
       <r>  -10.8995    1.0000 </r>
       <r>  -10.8820    1.0000 </r>
       <r>  -10.8231    1.0000 </r>
       <r>  -10.8030    1.0000 </r>
       <r>  -10.4238    1.0000 </r>
       <r>  -10.3060    1.0000 </r>
       <r>  -10.1921    1.0000 </r>
       <r>  -10.0516    1.0000 </r>
       <r>   -9.9610    1.0000 </r>
       <r>   -9.8868    1.0000 </r>
       <r>   -9.8617    1.0000 </r>
       <r>   -9.8264    1.0000 </r>
       <r>   -9.7905    1.0000 </r>
       <r>   -9.7773    1.0000 </r>
       <r>   -9.7570    1.0000 </r>
       <r>   -9.6411    1.0000 </r>
       <r>   -9.5752    1.0000 </r>
       <r>   -9.5465    1.0000 </r>
       <r>   -9.4389    1.0000 </r>
       <r>   -9.4275    1.0000 </r>
       <r>   -9.3858    1.0000 </r>
       <r>   -9.3374    1.0000 </r>
       <r>   -9.3004    1.0000 </r>
       <r>   -9.2614    1.0000 </r>
       <r>   -9.1774    1.0000 </r>
       <r>   -9.0350    1.0000 </r>
       <r>   -8.9703    1.0000 </r>
       <r>   -8.8754    1.0000 </r>
       <r>   -8.8562    1.0000 </r>
       <r>   -8.8235    1.0000 </r>
       <r>   -8.7582    1.0000 </r>
       <r>   -8.7450    1.0000 </r>
       <r>   -8.7196    1.0000 </r>
       <r>   -8.6286    1.0000 </r>
       <r>   -8.4525    1.0000 </r>
       <r>   -8.3651    1.0000 </r>
       <r>   -8.3275    1.0000 </r>
       <r>   -8.2047    1.0000 </r>
       <r>   -8.1965    1.0000 </r>
       <r>   -7.4125    1.0000 </r>
       <r>   -7.3539    1.0000 </r>
       <r>   -7.3016    1.0000 </r>
       <r>   -7.2621    1.0000 </r>
       <r>   -7.0584    1.0000 </r>
       <r>   -7.0415    1.0000 </r>
       <r>   -6.9696    1.0000 </r>
       <r>   -6.8930    1.0000 </r>
       <r>   -6.8684    1.0000 </r>
       <r>   -6.2788    1.0000 </r>
       <r>   -6.2534    1.0000 </r>
       <r>   -6.1067    1.0000 </r>
       <r>   -5.9861    1.0000 </r>
       <r>   -5.9486    1.0000 </r>
       <r>   -5.9044    1.0000 </r>
       <r>   -5.8621    1.0000 </r>
       <r>   -5.7634    1.0000 </r>
       <r>   -5.6874    1.0000 </r>
       <r>   -5.6579    1.0000 </r>
       <r>   -5.3321    1.0000 </r>
       <r>   -5.2820    1.0000 </r>
       <r>   -5.2160    1.0000 </r>
       <r>   -5.0518    1.0000 </r>
       <r>   -4.9710    1.0000 </r>
       <r>   -4.8831    1.0000 </r>
       <r>   -3.2850    0.0000 </r>
       <r>   -3.2536    0.0000 </r>
       <r>   -2.5433    0.0000 </r>
       <r>   -2.4529    0.0000 </r>
       <r>   -2.3784    0.0000 </r>
       <r>   -2.1357    0.0000 </r>
       <r>   -2.0786    0.0000 </r>
       <r>   -2.0223    0.0000 </r>
       <r>   -1.4264    0.0000 </r>
       <r>   -1.3974    0.0000 </r>
       <r>   -1.2413    0.0000 </r>
       <r>   -1.1056    0.0000 </r>
       <r>   -0.8513    0.0000 </r>
       <r>   -0.7218    0.0000 </r>
       <r>   -0.5882    0.0000 </r>
       <r>   -0.5017    0.0000 </r>
       <r>   -0.4668    0.0000 </r>
       <r>   -0.1275    0.0000 </r>
       <r>    0.0518    0.0000 </r>
       <r>    0.0726    0.0000 </r>
       <r>    0.1189    0.0000 </r>
       <r>    0.2151    0.0000 </r>
       <r>    0.3396    0.0000 </r>
       <r>    0.3551    0.0000 </r>
       <r>    0.4614    0.0000 </r>
       <r>    0.5405    0.0000 </r>
       <r>    0.6141    0.0000 </r>
       <r>    0.6410    0.0000 </r>
       <r>    0.6984    0.0000 </r>
       <r>    0.7265    0.0000 </r>
       <r>    0.7958    0.0000 </r>
       <r>    0.8267    0.0000 </r>
       <r>    0.8958    0.0000 </r>
       <r>    0.9184    0.0000 </r>
       <r>    0.9743    0.0000 </r>
       <r>    0.9885    0.0000 </r>
       <r>    1.0652    0.0000 </r>
       <r>    1.0849    0.0000 </r>
       <r>    1.1143    0.0000 </r>
       <r>    1.1315    0.0000 </r>
       <r>    1.1609    0.0000 </r>
       <r>    1.1872    0.0000 </r>
       <r>    1.2154    0.0000 </r>
       <r>    1.2178    0.0000 </r>
       <r>    1.2457    0.0000 </r>
       <r>    1.2669    0.0000 </r>
       <r>    1.2779    0.0000 </r>
       <r>    1.3356    0.0000 </r>
       <r>    1.3730    0.0000 </r>
       <r>    1.3925    0.0000 </r>
       <r>    1.4485    0.0000 </r>
      </set>
      <set comment="kpoint 2">
       <r>  -27.1670    1.0000 </r>
       <r>  -27.1500    1.0000 </r>
       <r>  -27.1027    1.0000 </r>
       <r>  -26.4662    1.0000 </r>
       <r>  -26.4344    1.0000 </r>
       <r>  -26.3721    1.0000 </r>
       <r>  -25.5995    1.0000 </r>
       <r>  -25.3770    1.0000 </r>
       <r>  -23.7320    1.0000 </r>
       <r>  -23.6575    1.0000 </r>
       <r>  -23.6262    1.0000 </r>
       <r>  -23.1757    1.0000 </r>
       <r>  -23.1169    1.0000 </r>
       <r>  -23.0497    1.0000 </r>
       <r>  -22.5881    1.0000 </r>
       <r>  -22.5633    1.0000 </r>
       <r>  -22.3644    1.0000 </r>
       <r>  -22.3406    1.0000 </r>
       <r>  -20.9233    1.0000 </r>
       <r>  -20.8767    1.0000 </r>
       <r>  -20.8317    1.0000 </r>
       <r>  -20.2054    1.0000 </r>
       <r>  -20.0960    1.0000 </r>
       <r>  -20.0626    1.0000 </r>
       <r>  -19.9836    1.0000 </r>
       <r>  -19.9365    1.0000 </r>
       <r>  -19.8447    1.0000 </r>
       <r>  -18.9562    1.0000 </r>
       <r>  -18.9284    1.0000 </r>
       <r>  -18.6590    1.0000 </r>
       <r>  -18.3083    1.0000 </r>
       <r>  -18.2733    1.0000 </r>
       <r>  -18.2369    1.0000 </r>
       <r>  -17.5496    1.0000 </r>
       <r>  -17.5397    1.0000 </r>
       <r>  -16.6990    1.0000 </r>
       <r>  -16.5583    1.0000 </r>
       <r>  -16.5108    1.0000 </r>
       <r>  -16.1867    1.0000 </r>
       <r>  -16.0604    1.0000 </r>
       <r>  -16.0094    1.0000 </r>
       <r>  -15.8742    1.0000 </r>
       <r>  -15.6860    1.0000 </r>
       <r>  -15.6372    1.0000 </r>
       <r>  -15.4593    1.0000 </r>
       <r>  -15.2895    1.0000 </r>
       <r>  -14.9512    1.0000 </r>
       <r>  -14.8459    1.0000 </r>
       <r>  -14.6652    1.0000 </r>
       <r>  -14.6126    1.0000 </r>
       <r>  -14.0773    1.0000 </r>
       <r>  -14.0570    1.0000 </r>
       <r>  -14.0396    1.0000 </r>
       <r>  -13.9720    1.0000 </r>
       <r>  -13.5429    1.0000 </r>
       <r>  -13.4193    1.0000 </r>
       <r>  -13.3891    1.0000 </r>
       <r>  -13.1795    1.0000 </r>
       <r>  -13.1027    1.0000 </r>
       <r>  -13.0120    1.0000 </r>
       <r>  -12.9170    1.0000 </r>
       <r>  -12.5892    1.0000 </r>
       <r>  -12.5574    1.0000 </r>
       <r>  -12.3874    1.0000 </r>
       <r>  -12.2104    1.0000 </r>
       <r>  -11.9483    1.0000 </r>
       <r>  -11.7475    1.0000 </r>
       <r>  -11.6648    1.0000 </r>
       <r>  -11.6329    1.0000 </r>
       <r>  -11.5362    1.0000 </r>
       <r>  -11.4228    1.0000 </r>
       <r>  -11.3751    1.0000 </r>
       <r>  -11.2988    1.0000 </r>
       <r>  -11.1358    1.0000 </r>
       <r>  -11.1002    1.0000 </r>
       <r>  -11.0277    1.0000 </r>
       <r>  -10.9547    1.0000 </r>
       <r>  -10.8995    1.0000 </r>
       <r>  -10.8819    1.0000 </r>
       <r>  -10.8229    1.0000 </r>
       <r>  -10.8031    1.0000 </r>
       <r>  -10.4261    1.0000 </r>
       <r>  -10.3049    1.0000 </r>
       <r>  -10.1911    1.0000 </r>
       <r>  -10.0515    1.0000 </r>
       <r>   -9.9611    1.0000 </r>
       <r>   -9.8868    1.0000 </r>
       <r>   -9.8617    1.0000 </r>
       <r>   -9.8266    1.0000 </r>
       <r>   -9.7908    1.0000 </r>
       <r>   -9.7769    1.0000 </r>
       <r>   -9.7568    1.0000 </r>
       <r>   -9.6410    1.0000 </r>
       <r>   -9.5754    1.0000 </r>
       <r>   -9.5467    1.0000 </r>
       <r>   -9.4387    1.0000 </r>
       <r>   -9.4274    1.0000 </r>
       <r>   -9.3857    1.0000 </r>
       <r>   -9.3375    1.0000 </r>
       <r>   -9.3007    1.0000 </r>
       <r>   -9.2614    1.0000 </r>
       <r>   -9.1771    1.0000 </r>
       <r>   -9.0350    1.0000 </r>
       <r>   -8.9708    1.0000 </r>
       <r>   -8.8753    1.0000 </r>
       <r>   -8.8562    1.0000 </r>
       <r>   -8.8235    1.0000 </r>
       <r>   -8.7591    1.0000 </r>
       <r>   -8.7451    1.0000 </r>
       <r>   -8.7180    1.0000 </r>
       <r>   -8.6286    1.0000 </r>
       <r>   -8.4524    1.0000 </r>
       <r>   -8.3653    1.0000 </r>
       <r>   -8.3275    1.0000 </r>
       <r>   -8.2049    1.0000 </r>
       <r>   -8.1969    1.0000 </r>
       <r>   -7.4125    1.0000 </r>
       <r>   -7.3538    1.0000 </r>
       <r>   -7.3015    1.0000 </r>
       <r>   -7.2618    1.0000 </r>
       <r>   -7.0585    1.0000 </r>
       <r>   -7.0414    1.0000 </r>
       <r>   -6.9696    1.0000 </r>
       <r>   -6.8932    1.0000 </r>
       <r>   -6.8685    1.0000 </r>
       <r>   -6.2788    1.0000 </r>
       <r>   -6.2534    1.0000 </r>
       <r>   -6.1066    1.0000 </r>
       <r>   -5.9861    1.0000 </r>
       <r>   -5.9486    1.0000 </r>
       <r>   -5.9044    1.0000 </r>
       <r>   -5.8621    1.0000 </r>
       <r>   -5.7636    1.0000 </r>
       <r>   -5.6879    1.0000 </r>
       <r>   -5.6572    1.0000 </r>
       <r>   -5.3322    1.0000 </r>
       <r>   -5.2821    1.0000 </r>
       <r>   -5.2159    1.0000 </r>
       <r>   -5.0518    1.0000 </r>
       <r>   -4.9710    1.0000 </r>
       <r>   -4.8831    1.0000 </r>
       <r>   -3.2851    0.0000 </r>
       <r>   -3.2529    0.0000 </r>
       <r>   -2.5482    0.0000 </r>
       <r>   -2.4550    0.0000 </r>
       <r>   -2.3718    0.0000 </r>
       <r>   -2.1355    0.0000 </r>
       <r>   -2.0782    0.0000 </r>
       <r>   -2.0221    0.0000 </r>
       <r>   -1.4292    0.0000 </r>
       <r>   -1.3956    0.0000 </r>
       <r>   -1.2413    0.0000 </r>
       <r>   -1.1056    0.0000 </r>
       <r>   -0.8531    0.0000 </r>
       <r>   -0.7220    0.0000 </r>
       <r>   -0.5879    0.0000 </r>
       <r>   -0.5018    0.0000 </r>
       <r>   -0.4645    0.0000 </r>
       <r>   -0.1272    0.0000 </r>
       <r>    0.0517    0.0000 </r>
       <r>    0.0728    0.0000 </r>
       <r>    0.1184    0.0000 </r>
       <r>    0.2147    0.0000 </r>
       <r>    0.3391    0.0000 </r>
       <r>    0.3546    0.0000 </r>
       <r>    0.4618    0.0000 </r>
       <r>    0.5407    0.0000 </r>
       <r>    0.6139    0.0000 </r>
       <r>    0.6415    0.0000 </r>
       <r>    0.6987    0.0000 </r>
       <r>    0.7274    0.0000 </r>
       <r>    0.7955    0.0000 </r>
       <r>    0.8272    0.0000 </r>
       <r>    0.8949    0.0000 </r>
       <r>    0.9180    0.0000 </r>
       <r>    0.9711    0.0000 </r>
       <r>    0.9928    0.0000 </r>
       <r>    1.0632    0.0000 </r>
       <r>    1.0858    0.0000 </r>
       <r>    1.1151    0.0000 </r>
       <r>    1.1278    0.0000 </r>
       <r>    1.1633    0.0000 </r>
       <r>    1.1870    0.0000 </r>
       <r>    1.2121    0.0000 </r>
       <r>    1.2205    0.0000 </r>
       <r>    1.2491    0.0000 </r>
       <r>    1.2650    0.0000 </r>
       <r>    1.2773    0.0000 </r>
       <r>    1.3336    0.0000 </r>
       <r>    1.3722    0.0000 </r>
       <r>    1.3975    0.0000 </r>
       <r>    1.4490    0.0000 </r>
      </set>
      <set comment="kpoint 3">
       <r>  -27.1670    1.0000 </r>
       <r>  -27.1500    1.0000 </r>
       <r>  -27.1027    1.0000 </r>
       <r>  -26.4662    1.0000 </r>
       <r>  -26.4344    1.0000 </r>
       <r>  -26.3721    1.0000 </r>
       <r>  -25.5995    1.0000 </r>
       <r>  -25.3770    1.0000 </r>
       <r>  -23.7320    1.0000 </r>
       <r>  -23.6575    1.0000 </r>
       <r>  -23.6263    1.0000 </r>
       <r>  -23.1756    1.0000 </r>
       <r>  -23.1167    1.0000 </r>
       <r>  -23.0500    1.0000 </r>
       <r>  -22.5880    1.0000 </r>
       <r>  -22.5633    1.0000 </r>
       <r>  -22.3645    1.0000 </r>
       <r>  -22.3406    1.0000 </r>
       <r>  -20.9233    1.0000 </r>
       <r>  -20.8767    1.0000 </r>
       <r>  -20.8317    1.0000 </r>
       <r>  -20.2055    1.0000 </r>
       <r>  -20.0959    1.0000 </r>
       <r>  -20.0625    1.0000 </r>
       <r>  -19.9838    1.0000 </r>
       <r>  -19.9363    1.0000 </r>
       <r>  -19.8450    1.0000 </r>
       <r>  -18.9564    1.0000 </r>
       <r>  -18.9270    1.0000 </r>
       <r>  -18.6605    1.0000 </r>
       <r>  -18.3083    1.0000 </r>
       <r>  -18.2735    1.0000 </r>
       <r>  -18.2370    1.0000 </r>
       <r>  -17.5518    1.0000 </r>
       <r>  -17.5345    1.0000 </r>
       <r>  -16.7150    1.0000 </r>
       <r>  -16.5530    1.0000 </r>
       <r>  -16.5013    1.0000 </r>
       <r>  -16.1858    1.0000 </r>
       <r>  -16.0604    1.0000 </r>
       <r>  -16.0087    1.0000 </r>
       <r>  -15.8739    1.0000 </r>
       <r>  -15.6869    1.0000 </r>
       <r>  -15.6396    1.0000 </r>
       <r>  -15.4591    1.0000 </r>
       <r>  -15.2908    1.0000 </r>
       <r>  -14.9506    1.0000 </r>
       <r>  -14.8443    1.0000 </r>
       <r>  -14.6663    1.0000 </r>
       <r>  -14.6130    1.0000 </r>
       <r>  -14.0782    1.0000 </r>
       <r>  -14.0581    1.0000 </r>
       <r>  -14.0375    1.0000 </r>
       <r>  -13.9698    1.0000 </r>
       <r>  -13.5444    1.0000 </r>
       <r>  -13.4271    1.0000 </r>
       <r>  -13.3820    1.0000 </r>
       <r>  -13.1782    1.0000 </r>
       <r>  -13.1027    1.0000 </r>
       <r>  -13.0124    1.0000 </r>
       <r>  -12.9165    1.0000 </r>
       <r>  -12.5894    1.0000 </r>
       <r>  -12.5571    1.0000 </r>
       <r>  -12.3893    1.0000 </r>
       <r>  -12.2102    1.0000 </r>
       <r>  -11.9482    1.0000 </r>
       <r>  -11.7475    1.0000 </r>
       <r>  -11.6656    1.0000 </r>
       <r>  -11.6318    1.0000 </r>
       <r>  -11.5373    1.0000 </r>
       <r>  -11.4225    1.0000 </r>
       <r>  -11.3735    1.0000 </r>
       <r>  -11.2983    1.0000 </r>
       <r>  -11.1356    1.0000 </r>
       <r>  -11.0999    1.0000 </r>
       <r>  -11.0283    1.0000 </r>
       <r>  -10.9547    1.0000 </r>
       <r>  -10.8996    1.0000 </r>
       <r>  -10.8817    1.0000 </r>
       <r>  -10.8224    1.0000 </r>
       <r>  -10.8034    1.0000 </r>
       <r>  -10.4328    1.0000 </r>
       <r>  -10.3019    1.0000 </r>
       <r>  -10.1884    1.0000 </r>
       <r>  -10.0511    1.0000 </r>
       <r>   -9.9613    1.0000 </r>
       <r>   -9.8868    1.0000 </r>
       <r>   -9.8616    1.0000 </r>
       <r>   -9.8271    1.0000 </r>
       <r>   -9.7917    1.0000 </r>
       <r>   -9.7757    1.0000 </r>
       <r>   -9.7562    1.0000 </r>
       <r>   -9.6407    1.0000 </r>
       <r>   -9.5760    1.0000 </r>
       <r>   -9.5475    1.0000 </r>
       <r>   -9.4381    1.0000 </r>
       <r>   -9.4272    1.0000 </r>
       <r>   -9.3857    1.0000 </r>
       <r>   -9.3378    1.0000 </r>
       <r>   -9.3016    1.0000 </r>
       <r>   -9.2617    1.0000 </r>
       <r>   -9.1762    1.0000 </r>
       <r>   -9.0350    1.0000 </r>
       <r>   -8.9721    1.0000 </r>
       <r>   -8.8752    1.0000 </r>
       <r>   -8.8562    1.0000 </r>
       <r>   -8.8233    1.0000 </r>
       <r>   -8.7613    1.0000 </r>
       <r>   -8.7453    1.0000 </r>
       <r>   -8.7136    1.0000 </r>
       <r>   -8.6286    1.0000 </r>
       <r>   -8.4520    1.0000 </r>
       <r>   -8.3657    1.0000 </r>
       <r>   -8.3273    1.0000 </r>
       <r>   -8.2058    1.0000 </r>
       <r>   -8.1979    1.0000 </r>
       <r>   -7.4124    1.0000 </r>
       <r>   -7.3535    1.0000 </r>
       <r>   -7.3012    1.0000 </r>
       <r>   -7.2608    1.0000 </r>
       <r>   -7.0586    1.0000 </r>
       <r>   -7.0413    1.0000 </r>
       <r>   -6.9696    1.0000 </r>
       <r>   -6.8939    1.0000 </r>
       <r>   -6.8690    1.0000 </r>
       <r>   -6.2788    1.0000 </r>
       <r>   -6.2533    1.0000 </r>
       <r>   -6.1066    1.0000 </r>
       <r>   -5.9861    1.0000 </r>
       <r>   -5.9485    1.0000 </r>
       <r>   -5.9044    1.0000 </r>
       <r>   -5.8620    1.0000 </r>
       <r>   -5.7640    1.0000 </r>
       <r>   -5.6892    1.0000 </r>
       <r>   -5.6553    1.0000 </r>
       <r>   -5.3324    1.0000 </r>
       <r>   -5.2825    1.0000 </r>
       <r>   -5.2155    1.0000 </r>
       <r>   -5.0519    1.0000 </r>
       <r>   -4.9711    1.0000 </r>
       <r>   -4.8831    1.0000 </r>
       <r>   -3.2854    0.0000 </r>
       <r>   -3.2506    0.0000 </r>
       <r>   -2.5615    0.0000 </r>
       <r>   -2.4592    0.0000 </r>
       <r>   -2.3552    0.0000 </r>
       <r>   -2.1350    0.0000 </r>
       <r>   -2.0770    0.0000 </r>
       <r>   -2.0217    0.0000 </r>
       <r>   -1.4361    0.0000 </r>
       <r>   -1.3914    0.0000 </r>
       <r>   -1.2413    0.0000 </r>
       <r>   -1.1056    0.0000 </r>
       <r>   -0.8583    0.0000 </r>
       <r>   -0.7225    0.0000 </r>
       <r>   -0.5871    0.0000 </r>
       <r>   -0.5019    0.0000 </r>
       <r>   -0.4579    0.0000 </r>
       <r>   -0.1261    0.0000 </r>
       <r>    0.0512    0.0000 </r>
       <r>    0.0735    0.0000 </r>
       <r>    0.1169    0.0000 </r>
       <r>    0.2132    0.0000 </r>
       <r>    0.3378    0.0000 </r>
       <r>    0.3531    0.0000 </r>
       <r>    0.4631    0.0000 </r>
       <r>    0.5410    0.0000 </r>
       <r>    0.6135    0.0000 </r>
       <r>    0.6427    0.0000 </r>
       <r>    0.6999    0.0000 </r>
       <r>    0.7297    0.0000 </r>
       <r>    0.7944    0.0000 </r>
       <r>    0.8286    0.0000 </r>
       <r>    0.8924    0.0000 </r>
       <r>    0.9167    0.0000 </r>
       <r>    0.9669    0.0000 </r>
       <r>    0.9999    0.0000 </r>
       <r>    1.0595    0.0000 </r>
       <r>    1.0865    0.0000 </r>
       <r>    1.1164    0.0000 </r>
       <r>    1.1221    0.0000 </r>
       <r>    1.1633    0.0000 </r>
       <r>    1.1915    0.0000 </r>
       <r>    1.2069    0.0000 </r>
       <r>    1.2238    0.0000 </r>
       <r>    1.2546    0.0000 </r>
       <r>    1.2613    0.0000 </r>
       <r>    1.2779    0.0000 </r>
       <r>    1.3299    0.0000 </r>
       <r>    1.3703    0.0000 </r>
       <r>    1.4095    0.0000 </r>
       <r>    1.4508    0.0000 </r>
      </set>
      <set comment="kpoint 4">
       <r>  -27.1670    1.0000 </r>
       <r>  -27.1500    1.0000 </r>
       <r>  -27.1027    1.0000 </r>
       <r>  -26.4662    1.0000 </r>
       <r>  -26.4344    1.0000 </r>
       <r>  -26.3721    1.0000 </r>
       <r>  -25.5995    1.0000 </r>
       <r>  -25.3770    1.0000 </r>
       <r>  -23.7320    1.0000 </r>
       <r>  -23.6574    1.0000 </r>
       <r>  -23.6265    1.0000 </r>
       <r>  -23.1754    1.0000 </r>
       <r>  -23.1163    1.0000 </r>
       <r>  -23.0505    1.0000 </r>
       <r>  -22.5879    1.0000 </r>
       <r>  -22.5633    1.0000 </r>
       <r>  -22.3645    1.0000 </r>
       <r>  -22.3406    1.0000 </r>
       <r>  -20.9233    1.0000 </r>
       <r>  -20.8767    1.0000 </r>
       <r>  -20.8317    1.0000 </r>
       <r>  -20.2055    1.0000 </r>
       <r>  -20.0957    1.0000 </r>
       <r>  -20.0624    1.0000 </r>
       <r>  -19.9840    1.0000 </r>
[...]
       <r>   -27.7600     0.0000     0.0000 </r>
       <r>   -27.6548     0.0000     0.0000 </r>
       <r>   -27.5496     0.0000     0.0000 </r>
       <r>   -27.4444     0.0000     0.0000 </r>
       <r>   -27.3392     0.0000     0.0000 </r>
       <r>   -27.2340     0.0000     0.0000 </r>
       <r>   -27.1288    37.9994     3.9975 </r>
       <r>   -27.0236    19.0094     6.0000 </r>
       <r>   -26.9184     0.0000     6.0000 </r>
       <r>   -26.8132     0.0000     6.0000 </r>
       <r>   -26.7080     0.0000     6.0000 </r>
       <r>   -26.6028     0.0000     6.0000 </r>
       <r>   -26.4976     0.0001     6.0000 </r>
       <r>   -26.3924    38.0614    10.0040 </r>
       <r>   -26.2872     0.0000    12.0000 </r>
       <r>   -26.1820     0.0000    12.0000 </r>
       <r>   -26.0768     0.0000    12.0000 </r>
       <r>   -25.9716     0.0000    12.0000 </r>
       <r>   -25.8664     0.0000    12.0000 </r>
       <r>   -25.7612     0.0000    12.0000 </r>
       <r>   -25.6560     0.0000    12.0000 </r>
       <r>   -25.5508    19.0116    14.0000 </r>
       <r>   -25.4456     0.0000    14.0000 </r>
       <r>   -25.3404    19.0116    16.0000 </r>
       <r>   -25.2352     0.0000    16.0000 </r>
       <r>   -25.1300     0.0000    16.0000 </r>
       <r>   -25.0248     0.0000    16.0000 </r>
       <r>   -24.9196     0.0000    16.0000 </r>
       <r>   -24.8144     0.0000    16.0000 </r>
       <r>   -24.7092     0.0000    16.0000 </r>
       <r>   -24.6040     0.0000    16.0000 </r>
       <r>   -24.4988     0.0000    16.0000 </r>
       <r>   -24.3936     0.0000    16.0000 </r>
       <r>   -24.2884     0.0000    16.0000 </r>
       <r>   -24.1832     0.0000    16.0000 </r>
       <r>   -24.0780     0.0000    16.0000 </r>
       <r>   -23.9728     0.0000    16.0000 </r>
       <r>   -23.8676     0.0000    16.0000 </r>
       <r>   -23.7624     0.0001    16.0000 </r>
       <r>   -23.6572    27.2499    18.8667 </r>
       <r>   -23.5520    19.0105    22.0000 </r>
       <r>   -23.4468     0.0000    22.0000 </r>
       <r>   -23.3416     0.0000    22.0000 </r>
       <r>   -23.2364     0.0000    22.0000 </r>
       <r>   -23.1312    19.1097    24.0103 </r>
       <r>   -23.0260    28.5166    27.9999 </r>
       <r>   -22.9208     0.0000    28.0000 </r>
       <r>   -22.8156     0.0000    28.0000 </r>
       <r>   -22.7104     0.0000    28.0000 </r>
       <r>   -22.6052     0.0713    28.0075 </r>
       <r>   -22.5000    19.0116    32.0000 </r>
       <r>   -22.3948     0.0005    32.0001 </r>
       <r>   -22.2896    38.0227    36.0000 </r>
       <r>   -22.1844     0.0000    36.0000 </r>
       <r>   -22.0792     0.0000    36.0000 </r>
       <r>   -21.9740     0.0000    36.0000 </r>
       <r>   -21.8688     0.0000    36.0000 </r>
       <r>   -21.7636     0.0000    36.0000 </r>
       <r>   -21.6584     0.0000    36.0000 </r>
       <r>   -21.5532     0.0000    36.0000 </r>
       <r>   -21.4480     0.0000    36.0000 </r>
       <r>   -21.3428     0.0000    36.0000 </r>
       <r>   -21.2376     0.0000    36.0000 </r>
       <r>   -21.1324     0.0000    36.0000 </r>
       <r>   -21.0272     0.0000    36.0000 </r>
       <r>   -20.9220    11.0204    37.1593 </r>
       <r>   -20.8168    37.6938    41.9653 </r>
       <r>   -20.7116     0.0000    42.0000 </r>
       <r>   -20.6064     0.0000    42.0000 </r>
       <r>   -20.5012     0.0000    42.0000 </r>
       <r>   -20.3960     0.0000    42.0000 </r>
       <r>   -20.2908     0.0000    42.0000 </r>
       <r>   -20.1856    18.9645    43.9950 </r>
       <r>   -20.0804    17.3740    45.8277 </r>
       <r>   -19.9752    17.0094    49.7894 </r>
       <r>   -19.8700    19.2973    52.0301 </r>
       <r>   -19.7648     2.2177    54.0000 </r>
       <r>   -19.6596     0.0000    54.0000 </r>
       <r>   -19.5544     0.0000    54.0000 </r>
       <r>   -19.4492     0.0000    54.0000 </r>
       <r>   -19.3440     0.0000    54.0000 </r>
       <r>   -19.2389     0.0000    54.0000 </r>
       <r>   -19.1337     0.0000    54.0000 </r>
       <r>   -19.0285     0.0000    54.0000 </r>
       <r>   -18.9233    20.0768    56.1121 </r>
       <r>   -18.8181    15.6318    57.9611 </r>
       <r>   -18.7129    15.3468    59.6145 </r>
       <r>   -18.6077     2.5349    60.0000 </r>
       <r>   -18.5025     0.0000    60.0000 </r>
       <r>   -18.3973     0.0000    60.0000 </r>
       <r>   -18.2921    19.6292    62.0650 </r>
       <r>   -18.1869    19.0116    66.0000 </r>
       <r>   -18.0817     0.0000    66.0000 </r>
       <r>   -17.9765     0.0000    66.0000 </r>
       <r>   -17.8713     0.0000    66.0000 </r>
       <r>   -17.7661     0.0000    66.0000 </r>
       <r>   -17.6609     0.0000    66.0000 </r>
       <r>   -17.5557     1.5528    66.1634 </r>
       <r>   -17.4505     2.2593    68.3543 </r>
       <r>   -17.3453     3.9202    68.8291 </r>
       <r>   -17.2401     6.0203    70.0000 </r>
       <r>   -17.1349     4.9629    70.5221 </r>
       <r>   -17.0297     5.9335    71.5242 </r>
       <r>   -16.9245     0.8864    71.6599 </r>
       <r>   -16.8193     0.7438    71.7782 </r>
       <r>   -16.7141     1.1182    71.9176 </r>
       <r>   -16.6089     0.0004    72.0000 </r>
       <r>   -16.5037    19.6134    74.0633 </r>
       <r>   -16.3985     0.9970    74.2216 </r>
       <r>   -16.2933     1.2190    74.3782 </r>
       <r>   -16.1881    13.3760    76.0071 </r>
       <r>   -16.0829    15.4764    78.0281 </r>
       <r>   -15.9777    13.1248    80.7474 </r>
       <r>   -15.8725    13.4241    82.2955 </r>
       <r>   -15.7673    10.1579    84.7019 </r>
       <r>   -15.6621    14.7855    87.7888 </r>
       <r>   -15.5569     5.9511    88.5927 </r>
       <r>   -15.4517     9.3565    89.9676 </r>
       <r>   -15.3465     2.7932    90.3272 </r>
       <r>   -15.2413    13.2805    91.8304 </r>
       <r>   -15.1361     0.0000    92.0000 </r>
       <r>   -15.0309     0.0000    92.0000 </r>
       <r>   -14.9257     3.6061    92.3794 </r>
       <r>   -14.8205    19.7739    94.7802 </r>
       <r>   -14.7153     4.0922    96.1638 </r>
       <r>   -14.6101    25.1265    99.9266 </r>
       <r>   -14.5049     0.0000   100.0000 </r>
       <r>   -14.3997     0.0000   100.0000 </r>
       <r>   -14.2945     0.0000   100.0000 </r>
       <r>   -14.1893     0.0000   100.0000 </r>
       <r>   -14.0841    16.3836   101.7235 </r>
       <r>   -13.9789    20.6027   106.0174 </r>
       <r>   -13.8737     3.9391   106.6144 </r>
       <r>   -13.7685     8.8720   108.0000 </r>
       <r>   -13.6633    13.4867   109.4188 </r>
       <r>   -13.5581     2.5409   109.8006 </r>
       <r>   -13.4529    10.7439   111.1302 </r>
       <r>   -13.3477     6.4064   112.2406 </r>
       <r>   -13.2425    14.5754   114.0000 </r>
       <r>   -13.1373    15.1486   115.5936 </r>
       <r>   -13.0321    23.2928   118.7837 </r>
       <r>   -12.9269     0.1186   120.0125 </r>
       <r>   -12.8217    15.5261   122.0000 </r>
       <r>   -12.7165     0.0000   122.0000 </r>
       <r>   -12.6113    14.9654   123.5743 </r>
       <r>   -12.5061    14.8875   125.5662 </r>
       <r>   -12.4009    13.8531   127.4573 </r>
       <r>   -12.2957     0.0004   128.0000 </r>
       <r>   -12.1905    18.0525   129.9991 </r>
       <r>   -12.0853     0.0000   130.0000 </r>
       <r>   -11.9801     0.0000   130.0000 </r>
       <r>   -11.8749    18.1950   131.9141 </r>
       <r>   -11.7697     9.1707   132.9648 </r>
       <r>   -11.6645    16.9722   135.7855 </r>
       <r>   -11.5593    19.1138   138.0108 </r>
       <r>   -11.4541     9.9453   140.0129 </r>
       <r>   -11.3489    27.8020   143.3081 </r>
       <r>   -11.2437    15.7440   145.3729 </r>
       <r>   -11.1385    14.5844   147.2509 </r>
       <r>   -11.0333    30.4320   151.2014 </r>
       <r>   -10.9281    21.2295   154.0000 </r>
       <r>   -10.8229    49.9682   159.2567 </r>
       <r>   -10.7177    15.0508   162.0000 </r>
       <r>   -10.6125    12.4039   163.3049 </r>
       <r>   -10.5073     1.8671   163.7131 </r>
       <r>   -10.4021     2.2175   163.9999 </r>
       <r>   -10.2969     9.5719   165.0070 </r>
       <r>   -10.1917     0.4056   166.0427 </r>
       <r>   -10.0865     7.9383   167.0018 </r>
       <r>    -9.9813    19.0233   170.0012 </r>
       <r>    -9.8761    42.4882   174.9197 </r>
       <r>    -9.7709    35.6686   180.0023 </r>
       <r>    -9.6657    26.7110   184.0267 </r>
       <r>    -9.5605    39.6446   189.5373 </r>
       <r>    -9.4553     0.0197   190.0021 </r>
       <r>    -9.3501    67.0286   197.7681 </r>
       <r>    -9.2449    24.7803   201.9902 </r>
       <r>    -9.1397     7.0608   202.7428 </r>
       <r>    -9.0345    19.3273   205.8166 </r>
       <r>    -8.9293    16.1598   208.0000 </r>
       <r>    -8.8241    50.2503   213.2863 </r>
       <r>    -8.7189    38.4122   218.0409 </r>
       <r>    -8.6137    20.8458   220.3596 </r>
       <r>    -8.5085    13.9773   221.9537 </r>
       <r>    -8.4033    21.9947   224.3138 </r>
       <r>    -8.2981    31.2088   228.8165 </r>
       <r>    -8.1930    21.0074   231.7933 </r>
       <r>    -8.0878     0.0000   232.0000 </r>
       <r>    -7.9826     0.0000   232.0000 </r>
       <r>    -7.8774     0.0000   232.0000 </r>
       <r>    -7.7722     0.0000   232.0000 </r>
       <r>    -7.6670     0.0000   232.0000 </r>
       <r>    -7.5618     0.0000   232.0000 </r>
       <r>    -7.4566     0.0000   232.0000 </r>
       <r>    -7.3514    25.9150   234.7262 </r>
       <r>    -7.2462    21.2721   238.2378 </r>
       <r>    -7.1410    14.3500   239.8763 </r>
       <r>    -7.0358    32.3229   243.4003 </r>
       <r>    -6.9306    25.7240   246.7061 </r>
       <r>    -6.8254    21.3880   250.0000 </r>
       <r>    -6.7202     0.0000   250.0000 </r>
       <r>    -6.6150     0.0000   250.0000 </r>
       <r>    -6.5098     0.0000   250.0000 </r>
       <r>    -6.4046     0.0000   250.0000 </r>
       <r>    -6.2994     0.0595   250.0063 </r>
       <r>    -6.1942    19.0116   254.0000 </r>
       <r>    -6.0890    18.7628   255.9738 </r>
       <r>    -5.9838    11.4007   257.1993 </r>
       <r>    -5.8786    38.1914   262.0177 </r>
       <r>    -5.7734    11.8955   265.2514 </r>
       <r>    -5.6682    18.5737   267.9539 </r>
       <r>    -5.5630    14.8923   270.0000 </r>
       <r>    -5.4578     0.0000   270.0000 </r>
       <r>    -5.3526     2.2142   270.2329 </r>
       <r>    -5.2474    19.0114   274.0000 </r>
       <r>    -5.1422    19.0116   276.0000 </r>
       <r>    -5.0370    18.7700   277.9746 </r>
       <r>    -4.9318    19.0116   280.0000 </r>
       <r>    -4.8266    19.0116   282.0000 </r>
       <r>    -4.7214     0.0000   282.0000 </r>
       <r>    -4.6162     0.0000   282.0000 </r>
       <r>    -4.5110     0.0000   282.0000 </r>
       <r>    -4.4058     0.0000   282.0000 </r>
       <r>    -4.3006     0.0000   282.0000 </r>
       <r>    -4.1954     0.0000   282.0000 </r>
       <r>    -4.0902     0.0000   282.0000 </r>
       <r>    -3.9850     0.0000   282.0000 </r>
       <r>    -3.8798     0.0000   282.0000 </r>
       <r>    -3.7746     0.0000   282.0000 </r>
       <r>    -3.6694     0.0000   282.0000 </r>
       <r>    -3.5642     0.0000   282.0000 </r>
       <r>    -3.4590     0.0000   282.0000 </r>
       <r>    -3.3538     0.0000   282.0000 </r>
       <r>    -3.2486    20.0170   284.1058 </r>
       <r>    -3.1434     3.8091   284.6841 </r>
       <r>    -3.0382    10.7732   286.0000 </r>
       <r>    -2.9330     4.5080   286.4742 </r>
       <r>    -2.8278     4.2298   287.5450 </r>
       <r>    -2.7226     1.0829   287.6973 </r>
       <r>    -2.6174     0.9403   287.8323 </r>
       <r>    -2.5122     4.3815   288.3276 </r>
       <r>    -2.4070     5.2281   290.0000 </r>
       <r>    -2.3018     1.4952   290.1573 </r>
       <r>    -2.1966     1.1891   290.3084 </r>
       <r>    -2.0914    21.2276   292.6498 </r>
       <r>    -1.9862    27.4196   296.3512 </r>
       <r>    -1.8810     1.6582   296.6078 </r>
       <r>    -1.7758    11.1525   297.9899 </r>
       <r>    -1.6706    11.3526   299.2110 </r>
       <r>    -1.5654     2.3411   299.5796 </r>
       <r>    -1.4602     1.6115   299.8029 </r>
       <r>    -1.3550    19.7479   301.9775 </r>
       <r>    -1.2498     1.5686   302.1650 </r>
       <r>    -1.1446     0.0000   304.0000 </r>
       <r>    -1.0394    19.5564   306.0573 </r>
       <r>    -0.9342     6.0773   307.7060 </r>
       <r>    -0.8290     2.2176   308.0000 </r>
       <r>    -0.7238    15.5657   309.6375 </r>
       <r>    -0.6186     0.0000   310.0000 </r>
       <r>    -0.5134    18.7306   311.9704 </r>
       <r>    -0.4082    13.6892   314.2068 </r>
       <r>    -0.3030     1.3153   314.3884 </r>
       <r>    -0.1978     6.4228   315.1090 </r>
       <r>    -0.0926    17.2437   317.3474 </r>
       <r>     0.0126    11.4861   319.5917 </r>
       <r>     0.1178    35.3392   323.4510 </r>
       <r>     0.2230    16.1133   325.9784 </r>
       <r>     0.3282    15.8988   327.6725 </r>
       <r>     0.4334     5.7034   330.0000 </r>
       <r>     0.5386    20.6808   332.1756 </r>
       <r>     0.6438    23.4547   336.3008 </r>
       <r>     0.7490    30.9219   340.4030 </r>
       <r>     0.8542    42.3263   346.5194 </r>
       <r>     0.9594    52.0463   353.3919 </r>
       <r>     1.0646    32.3262   357.9007 </r>
       <r>     1.1698    44.2871   364.1923 </r>
       <r>     1.2750    41.6216   369.5119 </r>
       <r>     1.3802    41.1392   375.9945 </r>
       <r>     1.4854    51.9967   382.9534 </r>
       <r>     1.5906     2.0596   384.0000 </r>
       <r>     1.6958     0.0000   384.0000 </r>
       <r>     1.8010     0.0000   384.0000 </r>
       <r>     1.9062     0.0000   384.0000 </r>
       <r>     2.0114     0.0000   384.0000 </r>
       <r>     2.1166     0.0000   384.0000 </r>
       <r>     2.2218     0.0000   384.0000 </r>
       <r>     2.3270     0.0000   384.0000 </r>
       <r>     2.4322     0.0000   384.0000 </r>
       <r>     2.5374     0.0000   384.0000 </r>
       <r>     2.6426     0.0000   384.0000 </r>
       <r>     2.7478     0.0000   384.0000 </r>
       <r>     2.8530     0.0000   384.0000 </r>
       <r>     2.9581     0.0000   384.0000 </r>
      </set>
     </set>
    </array>
   </total>
  </dos>
 </calculation>
 <structure name="finalpos" >
  <crystal>
   <varray name="basis" >
    <v>      21.67819676       0.02712673       0.00000000 </v>
    <v>     -10.81055245      18.87382093       0.00000000 </v>
    <v>       0.00000000       0.00000000      20.00000000 </v>
   </varray>
   <i name="volume">   8188.87317186 </i>
   <varray name="rec_basis" >
    <v>       0.04609626       0.02640303       0.00000000 </v>
    <v>      -0.00006625       0.05294549       0.00000000 </v>
    <v>       0.00000000       0.00000000       0.05000000 </v>
   </varray>
  </crystal>
  <varray name="positions" >
   <v>       0.07407263       0.54737290       0.54319438 </v>
   <v>       0.11121395       0.51230212       0.56673010 </v>
   <v>       0.07258571       0.44098045       0.59023428 </v>
   <v>       0.17907507       0.65098577       0.52423351 </v>
   <v>       0.22093148       0.62033722       0.54311345 </v>
   <v>       0.18590716       0.55043993       0.56462688 </v>
   <v>       0.29917899       0.66036519       0.53865857 </v>
   <v>       0.40457524       0.66119967       0.53343095 </v>
   <v>       0.40284032       0.76477830       0.53072754 </v>
   <v>       0.66857879       0.39584572       0.53192483 </v>
   <v>       0.77218773       0.39362183       0.53114670 </v>
   <v>       0.66706672       0.29043996       0.53405467 </v>
   <v>       0.44041008       0.84281432       0.53088441 </v>
   <v>       0.51450076       0.98915596       0.53265108 </v>
   <v>       0.44030717       0.95278078       0.54958910 </v>
   <v>       0.40414774       0.87838164       0.54745390 </v>
   <v>       0.55329072       0.06604551       0.53373760 </v>
   <v>       0.62606890       0.21231859       0.53506861 </v>
   <v>       0.55431340       0.17732839       0.55104866 </v>
   <v>       0.51626100       0.10286061       0.55132933 </v>
   <v>       0.44258550       0.06467962       0.56885669 </v>
   <v>       0.40591959       0.99185103       0.56811265 </v>
   <v>       0.44324583       0.62124612       0.53329606 </v>
   <v>       0.51776902       0.54836936       0.53308243 </v>
   <v>       0.44277279       0.51027381       0.54636827 </v>
   <v>       0.40669329       0.54896375       0.54605511 </v>
   <v>       0.55647834       0.50966253       0.53341801 </v>
   <v>       0.62865846       0.43459790       0.53300490 </v>
   <v>       0.55626351       0.39830311       0.54624210 </v>
   <v>       0.51850120       0.43533053       0.54715326 </v>
   <v>       0.44373200       0.39938239       0.56033552 </v>
   <v>       0.40711133       0.43590918       0.55936348 </v>
   <v>       0.99697961       0.50753665       0.53991303 </v>
   <v>       0.85055030       0.43131034       0.53369857 </v>
   <v>       0.88619219       0.39692892       0.55591505 </v>
   <v>       0.96076172       0.43495536       0.56031776 </v>
   <v>       0.99970890       0.40284038       0.58633792 </v>
   <v>       0.51378977       0.88387584       0.51562370 </v>
   <v>       0.65810929       0.17087203       0.51928757 </v>
   <v>       0.51729190       0.65371583       0.52086184 </v>
   <v>       0.66163729       0.50853567       0.52089637 </v>
   <v>       0.89138069       0.50367592       0.51533667 </v>
   <v>       0.14964648       0.43903215       0.63812073 </v>
   <v>       0.21767348       0.52607331       0.57819310 </v>
   <v>       0.20539648       0.70617547       0.50793094 </v>
   <v>       0.34754554       0.84620439       0.55870417 </v>
   <v>       0.52780516       0.20723099       0.56340482 </v>
   <v>       0.36078241       0.06893110       0.59699093 </v>
   <v>       0.31374755       0.90913121       0.58591048 </v>
   <v>       0.34986024       0.52434751       0.55629308 </v>
   <v>       0.52906864       0.34159445       0.55578809 </v>
   <v>       0.35998042       0.31210335       0.57908374 </v>
   <v>       0.31106921       0.42122270       0.55625218 </v>
   <v>       0.85657215       0.34146029       0.57061907 </v>
   <v>       0.99628598       0.32125191       0.62499876 </v>
   <v>       0.54353518       0.85721460       0.50234715 </v>
   <v>       0.71453398       0.19746144       0.50653888 </v>
   <v>       0.54748091       0.71050154       0.51075368 </v>
   <v>       0.71864660       0.53826943       0.51071005 </v>
   <v>       0.86420565       0.53162353       0.49786581 </v>
   <v>       0.10875919       0.61582107       0.52335954 </v>
   <v>       0.33338803       0.62305695       0.53925177 </v>
   <v>       0.33133673       0.73123193       0.53442207 </v>
   <v>       0.44188245       0.73223509       0.52853015 </v>
   <v>       0.74001725       0.43299313       0.52900355 </v>
   <v>       0.73838989       0.32237884       0.53281948 </v>
   <v>       0.62999740       0.32486706       0.53470744 </v>
   <v>       0.54908990       0.95395679       0.51592827 </v>
   <v>       0.62330234       0.10081398       0.51811953 </v>
   <v>       0.55292932       0.61877301       0.52061583 </v>
   <v>       0.62715318       0.54459488       0.52063719 </v>
   <v>       0.96160353       0.54022026       0.51753245 </v>
   <v>       0.10576401       0.40555995       0.61578118 </v>
   <v>       0.41035589       0.10262198       0.58643723 </v>
   <v>       0.33535808       0.96043187       0.58616320 </v>
   <v>       0.41053796       0.32844763       0.57305503 </v>
   <v>       0.33522880       0.39674370       0.57301914 </v>
   <v>       0.96224043       0.33436485       0.60753762 </v>
  </varray>
 </structure>
</modeling>
