<?xml version="1.0" encoding="ISO-8859-1"?>
<modeling>
 <generator>
  <i name="program" type="string">vasp </i>
  <i name="version" type="string">5.4.4.18Apr17-6-g9f103f2a35  </i>
  <i name="subversion" type="string">(build Jun 07 2020 16:50:00) complex            parallel </i>
  <i name="platform" type="string">LinuxIFC </i>
  <i name="date" type="string">2023 03 02 </i>
  <i name="time" type="string">22:42:27 </i>
 </generator>
 <incar>
  <i type="string" name="SYSTEM">Simulation for cell shape cell volume r</i>
  <i type="int" name="ISTART">     1</i>
  <i type="string" name="PREC">high</i>
  <i type="string" name="ALGO">48</i>
  <i type="int" name="ICHARG">    11</i>
  <i type="int" name="NELM">   200</i>
  <i type="int" name="IBRION">    -1</i>
  <i name="EDIFF">      0.00001000</i>
  <i name="EDIFFG">     -0.01000000</i>
  <i type="int" name="NSW">     0</i>
  <i type="int" name="ISIF">     2</i>
  <i name="ENCUT">    500.00000000</i>
  <i name="POTIM">      0.30000000</i>
  <i type="string" name="LREAL">A</i>
  <i type="int" name="ISMEAR">     0</i>
  <i name="SIGMA">      0.01000000</i>
  <i type="int" name="NWRITE">     0</i>
  <i type="logical" name="LWAVE"> F  </i>
  <i type="logical" name="LCHARG"> F  </i>
  <v type="int" name="KPOINT_BSE">    -1     0     0     0</v>
  <i type="int" name="NELM">   200</i>
  <i type="string" name="GGA">PE</i>
 </incar>
 <structure name="primitive_cell" >
  <crystal>
   <varray name="basis" >
    <v>      37.90653906      -0.03287220       0.00000000 </v>
    <v>     -18.98352384      32.76621474       0.00000000 </v>
    <v>       0.00000000       0.00000000      20.00000000 </v>
   </varray>
   <i name="volume">  24828.59537513 </i>
   <varray name="rec_basis" >
    <v>       0.02639393       0.01529166       0.00000000 </v>
    <v>       0.00002648       0.03053458       0.00000000 </v>
    <v>       0.00000000       0.00000000       0.05000000 </v>
   </varray>
  </crystal>
  <varray name="positions" >
   <v>       0.13405072      -0.30044232      -0.47551649 </v>
   <v>       0.10448523      -0.33707324      -0.49669259 </v>
   <v>       0.17022487      -0.29834917      -0.46650354 </v>
   <v>       0.10887460      -0.36949664       0.49015152 </v>
   <v>       0.17678589      -0.33018887      -0.47014439 </v>
   <v>       0.20721726      -0.25801646      -0.45451770 </v>
   <v>       0.06201659      -0.34615015       0.49130540 </v>
   <v>       0.14507005      -0.36509368      -0.49276428 </v>
   <v>       0.20700685      -0.22428029      -0.47447910 </v>
   <v>       0.04252108      -0.33608157      -0.46362880 </v>
   <v>       0.04114042      -0.37047639       0.43524727 </v>
   <v>       0.24268028      -0.25559504      -0.42712144 </v>
   <v>       0.05751065      -0.37364560       0.39290541 </v>
   <v>       0.24175509      -0.28221791      -0.40426697 </v>
   <v>       0.24262937      -0.18927783      -0.47330907 </v>
   <v>       0.14949671      -0.40188938      -0.49909684 </v>
   <v>       0.00167222      -0.35500700      -0.46813095 </v>
   <v>       0.24275269      -0.16155886      -0.48873052 </v>
   <v>       0.00079923      -0.39147679       0.43399786 </v>
   <v>       0.27849884      -0.22120256      -0.42934464 </v>
   <v>       0.12208092      -0.43218140       0.46187887 </v>
   <v>       0.20331120      -0.38029548      -0.43601274 </v>
   <v>       0.27910849      -0.18824865      -0.45570470 </v>
   <v>      -0.01435402      -0.34658532      -0.43181456 </v>
   <v>       0.17960681      -0.40588195      -0.46432367 </v>
   <v>      -0.01931765      -0.38642456       0.48509507 </v>
   <v>       0.12320967      -0.46671006       0.46107388 </v>
   <v>       0.17995045      -0.44104566      -0.46321291 </v>
   <v>       0.31976402      -0.15218940      -0.47042908 </v>
   <v>      -0.06207578      -0.42062635       0.49340540 </v>
   <v>       0.15087550      -0.47205771      -0.49891187 </v>
   <v>      -0.06543425      -0.45711711       0.48209021 </v>
   <v>       0.10155935      -0.49132550       0.42880363 </v>
   <v>       0.32192711      -0.11585216      -0.48082825 </v>
   <v>       0.35099380      -0.15928243      -0.47504212 </v>
   <v>      -0.09271762      -0.41459768      -0.48804497 </v>
   <v>      -0.05155471       0.49313956       0.42386333 </v>
   <v>      -0.10237908      -0.48951905       0.49409318 </v>
   <v>       0.35864348      -0.08623030       0.49831446 </v>
   <v>       0.14672108       0.48671860      -0.49552076 </v>
   <v>       0.38635919      -0.12707089      -0.49444378 </v>
   <v>      -0.07529626       0.46677727       0.45065185 </v>
   <v>      -0.12931689      -0.44940638      -0.48412178 </v>
   <v>       0.11074105       0.45600368       0.48329831 </v>
   <v>      -0.10533850       0.46998780       0.48741507 </v>
   <v>       0.32846380      -0.03943831      -0.43696622 </v>
   <v>       0.39142747      -0.09039196       0.48943881 </v>
   <v>      -0.13548891      -0.48741948      -0.48984261 </v>
   <v>      -0.13749297      -0.38177828      -0.45044509 </v>
   <v>       0.17742973       0.48204781      -0.47297935 </v>
   <v>       0.36715172      -0.04384433       0.48627660 </v>
   <v>      -0.07448442       0.43211136       0.44799861 </v>
   <v>       0.42510032      -0.16073027      -0.46672385 </v>
   <v>       0.42378613      -0.13030708      -0.49890222 </v>
   <v>       0.35417148      -0.02311367      -0.47107578 </v>
   <v>      -0.16679057      -0.44651266      -0.47476154 </v>
   <v>      -0.16630588      -0.41009452      -0.45850102 </v>
   <v>      -0.13641476       0.43733118      -0.48313859 </v>
   <v>       0.10504897       0.41835650       0.49220450 </v>
   <v>       0.39398519      -0.02372413       0.43699656 </v>
   <v>       0.23892373       0.49630775      -0.40204030 </v>
   <v>      -0.10432542       0.39989020       0.48062825 </v>
   <v>       0.16922707       0.44304847      -0.47045130 </v>
   <v>       0.04524463       0.39338752       0.42450977 </v>
   <v>       0.46073714      -0.15994079      -0.46754095 </v>
   <v>      -0.13615892       0.40226566      -0.48745601 </v>
   <v>       0.45762539      -0.10065429       0.46462432 </v>
   <v>       0.06312211       0.38520899       0.47549008 </v>
   <v>       0.37501900       0.01785087      -0.46764900 </v>
   <v>       0.45519879      -0.07782805       0.43480806 </v>
   <v>       0.46213768      -0.18478108      -0.44233383 </v>
   <v>       0.13280794       0.40969873      -0.48339639 </v>
   <v>      -0.00947048       0.37704689       0.37704086 </v>
   <v>       0.00504714       0.37153859       0.41973414 </v>
   <v>      -0.20211741      -0.48150528      -0.48479786 </v>
   <v>      -0.06501384       0.36635344       0.46674232 </v>
   <v>      -0.20067448      -0.40850708      -0.45258719 </v>
   <v>       0.23977045       0.47047388      -0.42448906 </v>
   <v>      -0.10069419       0.36265734       0.48490945 </v>
   <v>       0.41212040       0.01660458       0.43654668 </v>
   <v>       0.20468978       0.43808154      -0.45446704 </v>
   <v>       0.40596899       0.03762738       0.48961400 </v>
   <v>      -0.16136559       0.37534474      -0.46411189 </v>
   <v>      -0.01811509       0.34338488       0.47066688 </v>
   <v>       0.04059403       0.35028292      -0.48475595 </v>
   <v>       0.49346270      -0.09905263       0.46601316 </v>
   <v>       0.49562384      -0.12796514      -0.49821240 </v>
   <v>      -0.06083082       0.33387767       0.48063318 </v>
   <v>      -0.23624932      -0.48017621      -0.47804956 </v>
   <v>      -0.00031499       0.33068530      -0.48530275 </v>
   <v>      -0.23583283      -0.44365823      -0.46214135 </v>
   <v>       0.43283040       0.03290710       0.39525765 </v>
   <v>       0.27511826       0.47108377      -0.42452204 </v>
   <v>       0.05539421       0.33960514      -0.44990381 </v>
   <v>      -0.13237325       0.32818817      -0.49114153 </v>
   <v>       0.20384130       0.40362364      -0.47319784 </v>
   <v>      -0.26508910       0.49159279      -0.48612683 </v>
   <v>      -0.09042319       0.29760577      -0.49684018 </v>
   <v>       0.43880895       0.08042399      -0.49707273 </v>
   <v>      -0.46327706      -0.12346233      -0.49029622 </v>
   <v>      -0.12621769       0.29615304      -0.48677719 </v>
   <v>       0.27543464       0.43847692      -0.45036797 </v>
   <v>       0.39448795      -0.44359456      -0.43214349 </v>
   <v>      -0.46063012      -0.15472183      -0.46421570 </v>
   <v>      -0.47868464      -0.21731777      -0.39140290 </v>
   <v>      -0.27571776      -0.44490764      -0.45986741 </v>
   <v>       0.23882850       0.40325727      -0.46906314 </v>
   <v>       0.47583101       0.08376707      -0.49915584 </v>
   <v>       0.43145925       0.11091552      -0.48468645 </v>
   <v>      -0.27719869      -0.41023089      -0.46686716 </v>
   <v>      -0.48023221       0.05710338      -0.46249813 </v>
   <v>       0.34783615       0.48107600      -0.46536258 </v>
   <v>      -0.43112294      -0.08774144       0.49144462 </v>
   <v>       0.42123708      -0.44057043      -0.45802127 </v>
   <v>      -0.45336733      -0.21942101      -0.41300487 </v>
   <v>      -0.19567234       0.28361855      -0.42298586 </v>
   <v>       0.31590513       0.44278816      -0.46459736 </v>
   <v>      -0.30832901      -0.48284281      -0.45445441 </v>
   <v>       0.45609388      -0.40489753      -0.45308503 </v>
   <v>       0.23846976       0.37521940      -0.48306454 </v>
   <v>      -0.16312772       0.25650555      -0.47062931 </v>
   <v>      -0.42234890      -0.14820201      -0.45844705 </v>
   <v>      -0.45583747      -0.25567834      -0.41236032 </v>
   <v>      -0.49272001       0.12061573      -0.48246128 </v>
   <v>      -0.19750120       0.25570640      -0.44181685 </v>
   <v>      -0.45188501       0.08619656      -0.46779535 </v>
   <v>       0.41896890      -0.47368340      -0.49381117 </v>
   <v>       0.46556249       0.14726559      -0.47468045 </v>
   <v>      -0.41971077      -0.18500056      -0.44199635 </v>
   <v>       0.38238209       0.48477201      -0.49026443 </v>
   <v>      -0.31515051      -0.41676145      -0.47461537 </v>
   <v>      -0.39450946      -0.08309641      -0.49278843 </v>
   <v>      -0.46770069      -0.32943341      -0.45717072 </v>
   <v>       0.31743711       0.40878429      -0.47909121 </v>
   <v>       0.48841439      -0.40180719      -0.48587628 </v>
   <v>      -0.38793893      -0.11231750      -0.46848519 </v>
   <v>      -0.16374534       0.22184521      -0.48715472 </v>
   <v>      -0.49620785       0.15347345      -0.47065898 </v>
   <v>      -0.45259236       0.12281597      -0.47620024 </v>
   <v>      -0.34455767      -0.48555142      -0.46281460 </v>
   <v>      -0.41715104       0.08561966      -0.46596676 </v>
   <v>       0.42846038       0.18433330      -0.48667621 </v>
   <v>      -0.38437400      -0.03358170       0.39970160 </v>
   <v>      -0.42376947      -0.25752477      -0.43665081 </v>
   <v>      -0.32472783      -0.38360683      -0.48658366 </v>
   <v>      -0.31455357      -0.35358970      -0.44236445 </v>
   <v>      -0.34948928      -0.45343934      -0.47557636 </v>
   <v>       0.46266471       0.18482875      -0.46748719 </v>
   <v>       0.45055282      -0.46946335       0.46945895 </v>
   <v>      -0.47084703      -0.36470770      -0.47707523 </v>
   <v>       0.38674536       0.45346642       0.48928163 </v>
   <v>      -0.23331975       0.22137566      -0.43748080 </v>
   <v>       0.48484488      -0.43356821       0.47253544 </v>
   <v>      -0.38598378      -0.18586048      -0.45959892 </v>
   <v>      -0.42922191      -0.29858440      -0.44969851 </v>
   <v>      -0.36486592      -0.01832126       0.44268832 </v>
   <v>      -0.36096705      -0.04055730       0.49623183 </v>
   <v>       0.35416450       0.41621726       0.49971035 </v>
   <v>      -0.38753720      -0.22177957      -0.45491369 </v>
   <v>      -0.38090430       0.43984804      -0.46662027 </v>
   <v>      -0.35462542      -0.40898376       0.41726164 </v>
   <v>      -0.38272754       0.47419573      -0.45978889 </v>
   <v>      -0.35112374      -0.38913627       0.45940677 </v>
   <v>      -0.19923881       0.18716114      -0.47995269 </v>
   <v>       0.40148063       0.22000417      -0.49975585 </v>
   <v>       0.42909750       0.21992483      -0.48450597 </v>
   <v>      -0.41799634       0.15919381      -0.47774703 </v>
   <v>      -0.33503266      -0.33318391      -0.44554848 </v>
   <v>      -0.38246409       0.12177846      -0.47116857 </v>
   <v>      -0.34611383       0.02200114       0.44528054 </v>
   <v>      -0.23481637       0.18703223      -0.45911188 </v>
   <v>      -0.48940817      -0.42943579       0.44222858 </v>
   <v>      -0.32645539      -0.30815666      -0.41026877 </v>
   <v>       0.49653274       0.22073202      -0.44257495 </v>
   <v>      -0.33096813      -0.02202552      -0.45895780 </v>
   <v>      -0.34815908       0.08397993      -0.49050462 </v>
   <v>      -0.43911570      -0.36994068      -0.49101256 </v>
   <v>      -0.47680452       0.22013176      -0.42351889 </v>
   <v>      -0.38303555       0.15862537      -0.47449353 </v>
   <v>      -0.39513371      -0.30116134      -0.45702810 </v>
   <v>      -0.20015435       0.15869013      -0.49272842 </v>
   <v>      -0.36017680      -0.22286964      -0.46826246 </v>
   <v>       0.36360949       0.38322427       0.48649579 </v>
   <v>      -0.32077279       0.04076096       0.49679683 </v>
   <v>      -0.41654269       0.40478044      -0.46824582 </v>
   <v>      -0.37371317      -0.37155048       0.45991486 </v>
   <v>      -0.41576081       0.37645300      -0.47300900 </v>
   <v>      -0.34406586       0.12019158      -0.47477015 </v>
   <v>      -0.36809386      -0.34581022      -0.48957165 </v>
   <v>      -0.42025096       0.47295190      -0.45104113 </v>
   <v>      -0.30924881       0.01890284      -0.46034464 </v>
   <v>      -0.40217265      -0.33760675      -0.47892678 </v>
   <v>       0.39862180       0.41132751       0.39506911 </v>
   <v>       0.46420299       0.25642574      -0.46513413 </v>
   <v>      -0.42108478      -0.49913015      -0.44118263 </v>
   <v>       0.49752089       0.25632111      -0.44228942 </v>
   <v>      -0.31360512       0.08245298      -0.48876302 </v>
   <v>       0.34999961       0.35102243      -0.47264579 </v>
   <v>      -0.27558245       0.14963032      -0.46485986 </v>
   <v>       0.39227958       0.38971713       0.43572302 </v>
   <v>      -0.35456985       0.18790315      -0.47537725 </v>
   <v>      -0.30834633       0.15447904      -0.46361812 </v>
   <v>      -0.28434271       0.03412372      -0.42445537 </v>
   <v>      -0.45405099       0.40400946      -0.46543853 </v>
   <v>      -0.45569079       0.43819866      -0.45487532 </v>
   <v>       0.43247079       0.29782368      -0.48449852 </v>
   <v>       0.46707776       0.29694756      -0.47186689 </v>
   <v>      -0.27648859       0.11380315      -0.47411733 </v>
   <v>       0.35789319       0.30285823      -0.44166019 </v>
   <v>       0.36927455       0.32945425      -0.47437961 </v>
   <v>       0.41362551       0.37082601       0.43829038 </v>
   <v>      -0.49382685       0.36581075      -0.47525231 </v>
   <v>       0.40463738       0.34299324       0.48672223 </v>
   <v>      -0.49550372       0.32989289      -0.46642104 </v>
   <v>       0.43859453       0.33535846      -0.49662537 </v>
   <v>       0.47455849       0.37018611      -0.49307565 </v>
  </varray>
 </structure>
 <varray name="primitive_index" >
  <v type="int" >        1 </v>
  <v type="int" >      109 </v>
  <v type="int" >      110 </v>
  <v type="int" >        3 </v>
  <v type="int" >        2 </v>
  <v type="int" >      123 </v>
  <v type="int" >      130 </v>
  <v type="int" >      111 </v>
  <v type="int" >        9 </v>
  <v type="int" >       12 </v>
  <v type="int" >      131 </v>
  <v type="int" >      124 </v>
  <v type="int" >       80 </v>
  <v type="int" >       77 </v>
  <v type="int" >      117 </v>
  <v type="int" >      119 </v>
  <v type="int" >      180 </v>
  <v type="int" >       73 </v>
  <v type="int" >       68 </v>
  <v type="int" >       13 </v>
  <v type="int" >       15 </v>
  <v type="int" >       75 </v>
  <v type="int" >      125 </v>
  <v type="int" >       90 </v>
  <v type="int" >      120 </v>
  <v type="int" >      202 </v>
  <v type="int" >      129 </v>
  <v type="int" >       11 </v>
  <v type="int" >      113 </v>
  <v type="int" >      153 </v>
  <v type="int" >      121 </v>
  <v type="int" >       39 </v>
  <v type="int" >       79 </v>
  <v type="int" >        5 </v>
  <v type="int" >       43 </v>
  <v type="int" >       37 </v>
  <v type="int" >      101 </v>
  <v type="int" >      155 </v>
  <v type="int" >      159 </v>
  <v type="int" >      116 </v>
  <v type="int" >      160 </v>
  <v type="int" >      199 </v>
  <v type="int" >      154 </v>
  <v type="int" >        8 </v>
  <v type="int" >      173 </v>
  <v type="int" >       93 </v>
  <v type="int" >       44 </v>
  <v type="int" >       38 </v>
  <v type="int" >       84 </v>
  <v type="int" >        7 </v>
  <v type="int" >      213 </v>
  <v type="int" >       65 </v>
  <v type="int" >       49 </v>
  <v type="int" >      167 </v>
  <v type="int" >      183 </v>
  <v type="int" >      196 </v>
  <v type="int" >      164 </v>
  <v type="int" >       51 </v>
  <v type="int" >      114 </v>
  <v type="int" >       71 </v>
  <v type="int" >       74 </v>
  <v type="int" >      171 </v>
  <v type="int" >      115 </v>
  <v type="int" >       16 </v>
  <v type="int" >      166 </v>
  <v type="int" >      172 </v>
  <v type="int" >      197 </v>
  <v type="int" >      132 </v>
  <v type="int" >       57 </v>
  <v type="int" >       99 </v>
  <v type="int" >       85 </v>
  <v type="int" >        6 </v>
  <v type="int" >      106 </v>
  <v type="int" >      210 </v>
  <v type="int" >       62 </v>
  <v type="int" >       24 </v>
  <v type="int" >       48 </v>
  <v type="int" >      118 </v>
  <v type="int" >      140 </v>
  <v type="int" >      212 </v>
  <v type="int" >      128 </v>
  <v type="int" >      211 </v>
  <v type="int" >       87 </v>
  <v type="int" >      209 </v>
  <v type="int" >      122 </v>
  <v type="int" >       63 </v>
  <v type="int" >      165 </v>
  <v type="int" >      138 </v>
  <v type="int" >      195 </v>
  <v type="int" >       56 </v>
  <v type="int" >      194 </v>
  <v type="int" >      107 </v>
  <v type="int" >       10 </v>
  <v type="int" >       76 </v>
  <v type="int" >       23 </v>
  <v type="int" >       14 </v>
  <v type="int" >       98 </v>
  <v type="int" >       22 </v>
  <v type="int" >      141 </v>
  <v type="int" >      135 </v>
  <v type="int" >      139 </v>
  <v type="int" >      126 </v>
  <v type="int" >       86 </v>
  <v type="int" >       18 </v>
  <v type="int" >       95 </v>
  <v type="int" >      145 </v>
  <v type="int" >      127 </v>
  <v type="int" >       27 </v>
  <v type="int" >       25 </v>
  <v type="int" >       28 </v>
  <v type="int" >       88 </v>
  <v type="int" >       20 </v>
  <v type="int" >       19 </v>
  <v type="int" >      169 </v>
  <v type="int" >      186 </v>
  <v type="int" >       96 </v>
  <v type="int" >      112 </v>
  <v type="int" >       29 </v>
  <v type="int" >       50 </v>
  <v type="int" >       78 </v>
  <v type="int" >      188 </v>
  <v type="int" >      134 </v>
  <v type="int" >       59 </v>
  <v type="int" >      143 </v>
  <v type="int" >      189 </v>
  <v type="int" >      175 </v>
  <v type="int" >      168 </v>
  <v type="int" >      142 </v>
  <v type="int" >      185 </v>
  <v type="int" >      137 </v>
  <v type="int" >      144 </v>
  <v type="int" >      133 </v>
  <v type="int" >       41 </v>
  <v type="int" >        4 </v>
  <v type="int" >      170 </v>
  <v type="int" >       17 </v>
  <v type="int" >       46 </v>
  <v type="int" >       26 </v>
  <v type="int" >      174 </v>
  <v type="int" >      146 </v>
  <v type="int" >       52 </v>
  <v type="int" >       47 </v>
  <v type="int" >      104 </v>
  <v type="int" >      187 </v>
  <v type="int" >      214 </v>
  <v type="int" >       58 </v>
  <v type="int" >       30 </v>
  <v type="int" >      191 </v>
  <v type="int" >       64 </v>
  <v type="int" >      158 </v>
  <v type="int" >       21 </v>
  <v type="int" >       60 </v>
  <v type="int" >      198 </v>
  <v type="int" >       45 </v>
  <v type="int" >      157 </v>
  <v type="int" >      204 </v>
  <v type="int" >      203 </v>
  <v type="int" >      136 </v>
  <v type="int" >      161 </v>
  <v type="int" >       67 </v>
  <v type="int" >      108 </v>
  <v type="int" >      177 </v>
  <v type="int" >      215 </v>
  <v type="int" >      162 </v>
  <v type="int" >       83 </v>
  <v type="int" >      163 </v>
  <v type="int" >       66 </v>
  <v type="int" >      184 </v>
  <v type="int" >      176 </v>
  <v type="int" >       69 </v>
  <v type="int" >      190 </v>
  <v type="int" >      100 </v>
  <v type="int" >       94 </v>
  <v type="int" >      192 </v>
  <v type="int" >       54 </v>
  <v type="int" >       36 </v>
  <v type="int" >       42 </v>
  <v type="int" >       97 </v>
  <v type="int" >      200 </v>
  <v type="int" >       40 </v>
  <v type="int" >       82 </v>
  <v type="int" >       81 </v>
  <v type="int" >      206 </v>
  <v type="int" >      205 </v>
  <v type="int" >      201 </v>
  <v type="int" >       72 </v>
  <v type="int" >      103 </v>
  <v type="int" >      152 </v>
  <v type="int" >      216 </v>
  <v type="int" >      178 </v>
  <v type="int" >      181 </v>
  <v type="int" >      156 </v>
  <v type="int" >      105 </v>
  <v type="int" >      193 </v>
  <v type="int" >       89 </v>
  <v type="int" >       61 </v>
  <v type="int" >      150 </v>
  <v type="int" >       55 </v>
  <v type="int" >      151 </v>
  <v type="int" >      207 </v>
  <v type="int" >      102 </v>
  <v type="int" >       35 </v>
  <v type="int" >       91 </v>
  <v type="int" >      179 </v>
  <v type="int" >       53 </v>
  <v type="int" >       31 </v>
  <v type="int" >      148 </v>
  <v type="int" >       34 </v>
  <v type="int" >       92 </v>
  <v type="int" >      182 </v>
  <v type="int" >       70 </v>
  <v type="int" >      149 </v>
  <v type="int" >      208 </v>
  <v type="int" >       32 </v>
  <v type="int" >      147 </v>
  <v type="int" >       33 </v>
 </varray>
 <kpoints>
  <generation param="listgenerated">
   <i name="divisions" type="int">      20 </i>
   <v>       0.00000000       0.00000000       0.00000000 </v>
   <v>       0.50000000       0.00000000       0.00000000 </v>
   <v>       0.33333333       0.33333333       0.00000000 </v>
   <v>       0.00000000       0.00000000       0.00000000 </v>
  </generation>
  <varray name="kpointlist" >
   <v>       0.00000000       0.00000000       0.00000000 </v>
   <v>       0.02631579       0.00000000       0.00000000 </v>
   <v>       0.05263158       0.00000000       0.00000000 </v>
   <v>       0.07894737       0.00000000       0.00000000 </v>
   <v>       0.10526316       0.00000000       0.00000000 </v>
   <v>       0.13157895       0.00000000       0.00000000 </v>
   <v>       0.15789474       0.00000000       0.00000000 </v>
   <v>       0.18421053       0.00000000       0.00000000 </v>
   <v>       0.21052632       0.00000000       0.00000000 </v>
   <v>       0.23684211       0.00000000       0.00000000 </v>
   <v>       0.26315789       0.00000000       0.00000000 </v>
   <v>       0.28947368       0.00000000       0.00000000 </v>
   <v>       0.31578947       0.00000000       0.00000000 </v>
   <v>       0.34210526       0.00000000       0.00000000 </v>
   <v>       0.36842105       0.00000000       0.00000000 </v>
   <v>       0.39473684       0.00000000       0.00000000 </v>
   <v>       0.42105263       0.00000000       0.00000000 </v>
   <v>       0.44736842       0.00000000       0.00000000 </v>
   <v>       0.47368421       0.00000000       0.00000000 </v>
   <v>       0.50000000       0.00000000       0.00000000 </v>
   <v>       0.50000000       0.00000000       0.00000000 </v>
   <v>       0.49122807       0.01754386       0.00000000 </v>
   <v>       0.48245614       0.03508772       0.00000000 </v>
   <v>       0.47368421       0.05263158       0.00000000 </v>
   <v>       0.46491228       0.07017544       0.00000000 </v>
   <v>       0.45614035       0.08771930       0.00000000 </v>
   <v>       0.44736842       0.10526316       0.00000000 </v>
   <v>       0.43859649       0.12280702       0.00000000 </v>
   <v>       0.42982456       0.14035088       0.00000000 </v>
   <v>       0.42105263       0.15789474       0.00000000 </v>
   <v>       0.41228070       0.17543860       0.00000000 </v>
   <v>       0.40350877       0.19298246       0.00000000 </v>
   <v>       0.39473684       0.21052632       0.00000000 </v>
   <v>       0.38596491       0.22807018       0.00000000 </v>
   <v>       0.37719298       0.24561404       0.00000000 </v>
   <v>       0.36842105       0.26315789       0.00000000 </v>
   <v>       0.35964912       0.28070175       0.00000000 </v>
   <v>       0.35087719       0.29824561       0.00000000 </v>
   <v>       0.34210526       0.31578947       0.00000000 </v>
   <v>       0.33333333       0.33333333       0.00000000 </v>
   <v>       0.33333333       0.33333333       0.00000000 </v>
   <v>       0.31578947       0.31578947       0.00000000 </v>
   <v>       0.29824561       0.29824561       0.00000000 </v>
   <v>       0.28070175       0.28070175       0.00000000 </v>
   <v>       0.26315789       0.26315789       0.00000000 </v>
   <v>       0.24561404       0.24561404       0.00000000 </v>
   <v>       0.22807018       0.22807018       0.00000000 </v>
   <v>       0.21052632       0.21052632       0.00000000 </v>
   <v>       0.19298246       0.19298246       0.00000000 </v>
   <v>       0.17543860       0.17543860       0.00000000 </v>
   <v>       0.15789474       0.15789474       0.00000000 </v>
   <v>       0.14035088       0.14035088       0.00000000 </v>
   <v>       0.12280702       0.12280702       0.00000000 </v>
   <v>       0.10526316       0.10526316       0.00000000 </v>
   <v>       0.08771930       0.08771930       0.00000000 </v>
   <v>       0.07017544       0.07017544       0.00000000 </v>
   <v>       0.05263158       0.05263158       0.00000000 </v>
   <v>       0.03508772       0.03508772       0.00000000 </v>
   <v>       0.01754386       0.01754386       0.00000000 </v>
   <v>       0.00000000       0.00000000       0.00000000 </v>
  </varray>
  <varray name="weights" >
   <v>       0.01666667 </v>
   <v>       0.01666667 </v>
   <v>       0.01666667 </v>
   <v>       0.01666667 </v>
   <v>       0.01666667 </v>
   <v>       0.01666667 </v>
   <v>       0.01666667 </v>
   <v>       0.01666667 </v>
   <v>       0.01666667 </v>
   <v>       0.01666667 </v>
   <v>       0.01666667 </v>
   <v>       0.01666667 </v>
   <v>       0.01666667 </v>
   <v>       0.01666667 </v>
   <v>       0.01666667 </v>
   <v>       0.01666667 </v>
   <v>       0.01666667 </v>
   <v>       0.01666667 </v>
   <v>       0.01666667 </v>
   <v>       0.01666667 </v>
   <v>       0.01666667 </v>
   <v>       0.01666667 </v>
   <v>       0.01666667 </v>
   <v>       0.01666667 </v>
   <v>       0.01666667 </v>
   <v>       0.01666667 </v>
   <v>       0.01666667 </v>
   <v>       0.01666667 </v>
   <v>       0.01666667 </v>
   <v>       0.01666667 </v>
   <v>       0.01666667 </v>
   <v>       0.01666667 </v>
   <v>       0.01666667 </v>
   <v>       0.01666667 </v>
   <v>       0.01666667 </v>
   <v>       0.01666667 </v>
   <v>       0.01666667 </v>
   <v>       0.01666667 </v>
   <v>       0.01666667 </v>
   <v>       0.01666667 </v>
   <v>       0.01666667 </v>
   <v>       0.01666667 </v>
   <v>       0.01666667 </v>
   <v>       0.01666667 </v>
   <v>       0.01666667 </v>
   <v>       0.01666667 </v>
   <v>       0.01666667 </v>
   <v>       0.01666667 </v>
   <v>       0.01666667 </v>
   <v>       0.01666667 </v>
   <v>       0.01666667 </v>
   <v>       0.01666667 </v>
   <v>       0.01666667 </v>
   <v>       0.01666667 </v>
   <v>       0.01666667 </v>
   <v>       0.01666667 </v>
   <v>       0.01666667 </v>
   <v>       0.01666667 </v>
   <v>       0.01666667 </v>
   <v>       0.01666667 </v>
  </varray>
 </kpoints>
 <parameters>
  <separator name="general" >
   <i type="string" name="SYSTEM">Simulation for cell shape cell volume r</i>
   <i type="logical" name="LCOMPAT"> F  </i>
  </separator>
  <separator name="electronic" >
   <i type="string" name="PREC">high</i>
   <i name="ENMAX">    500.00000000</i>
   <i name="ENAUG">    644.87300000</i>
   <i name="EDIFF">      0.00001000</i>
   <i type="int" name="IALGO">    38</i>
   <i type="int" name="IWAVPR">    10</i>
   <i type="int" name="NBANDS">   528</i>
   <i name="NELECT">    828.00000000</i>
   <i type="int" name="TURBO">     0</i>
   <i type="int" name="IRESTART">     0</i>
   <i type="int" name="NREBOOT">     0</i>
   <i type="int" name="NMIN">     0</i>
   <i name="EREF">      0.00000000</i>
   <separator name="electronic smearing" >
    <i type="int" name="ISMEAR">     0</i>
    <i name="SIGMA">      0.01000000</i>
    <i name="KSPACING">      0.50000000</i>
    <i type="logical" name="KGAMMA"> T  </i>
   </separator>
   <separator name="electronic projectors" >
    <i type="logical" name="LREAL"> T  </i>
    <v name="ROPT">     -0.00040000     -0.00040000     -0.00040000</v>
    <i type="int" name="LMAXPAW">  -100</i>
    <i type="int" name="LMAXMIX">     2</i>
    <i type="logical" name="NLSPLINE"> F  </i>
   </separator>
   <separator name="electronic startup" >
    <i type="int" name="ISTART">     1</i>
    <i type="int" name="ICHARG">    11</i>
    <i type="int" name="INIWAV">     1</i>
   </separator>
   <separator name="electronic spin" >
    <i type="int" name="ISPIN">     1</i>
    <i type="logical" name="LNONCOLLINEAR"> F  </i>
    <v name="MAGMOM">      1.00000000      1.00000000      1.00000000      1.00000000      1.00000000      1.00000000      1.00000000      1.00000000      1.00000000      1.00000000      1.00000000      1.00000000      1.00000000      1.00000000      1.00000000      1.00000000      1.00000000      1.00000000      1.00000000      1.00000000
      1.00000000      1.00000000      1.00000000      1.00000000      1.00000000      1.00000000      1.00000000      1.00000000      1.00000000      1.00000000      1.00000000      1.00000000      1.00000000      1.00000000      1.00000000      1.00000000      1.00000000      1.00000000      1.00000000      1.00000000
      1.00000000      1.00000000      1.00000000      1.00000000      1.00000000      1.00000000      1.00000000      1.00000000      1.00000000      1.00000000      1.00000000      1.00000000      1.00000000      1.00000000      1.00000000      1.00000000      1.00000000      1.00000000      1.00000000      1.00000000
      1.00000000      1.00000000      1.00000000      1.00000000      1.00000000      1.00000000      1.00000000      1.00000000      1.00000000      1.00000000      1.00000000      1.00000000      1.00000000      1.00000000      1.00000000      1.00000000      1.00000000      1.00000000      1.00000000      1.00000000
      1.00000000      1.00000000      1.00000000      1.00000000      1.00000000      1.00000000      1.00000000      1.00000000      1.00000000      1.00000000      1.00000000      1.00000000      1.00000000      1.00000000      1.00000000      1.00000000      1.00000000      1.00000000      1.00000000      1.00000000
      1.00000000      1.00000000      1.00000000      1.00000000      1.00000000      1.00000000      1.00000000      1.00000000      1.00000000      1.00000000      1.00000000      1.00000000      1.00000000      1.00000000      1.00000000      1.00000000      1.00000000      1.00000000      1.00000000      1.00000000
      1.00000000      1.00000000      1.00000000      1.00000000      1.00000000      1.00000000      1.00000000      1.00000000      1.00000000      1.00000000      1.00000000      1.00000000      1.00000000      1.00000000      1.00000000      1.00000000      1.00000000      1.00000000      1.00000000      1.00000000
      1.00000000      1.00000000      1.00000000      1.00000000      1.00000000      1.00000000      1.00000000      1.00000000      1.00000000      1.00000000      1.00000000      1.00000000      1.00000000      1.00000000      1.00000000      1.00000000      1.00000000      1.00000000      1.00000000      1.00000000
      1.00000000      1.00000000      1.00000000      1.00000000      1.00000000      1.00000000      1.00000000      1.00000000      1.00000000      1.00000000      1.00000000      1.00000000      1.00000000      1.00000000      1.00000000      1.00000000      1.00000000      1.00000000      1.00000000      1.00000000
      1.00000000      1.00000000      1.00000000      1.00000000      1.00000000      1.00000000      1.00000000      1.00000000      1.00000000      1.00000000      1.00000000      1.00000000      1.00000000      1.00000000      1.00000000      1.00000000      1.00000000      1.00000000      1.00000000      1.00000000
      1.00000000      1.00000000      1.00000000      1.00000000      1.00000000      1.00000000      1.00000000      1.00000000      1.00000000      1.00000000      1.00000000      1.00000000      1.00000000      1.00000000      1.00000000      1.00000000</v>
    <i name="NUPDOWN">     -1.00000000</i>
    <i type="logical" name="LSORBIT"> F  </i>
    <v name="SAXIS">      0.00000000      0.00000000      1.00000000</v>
    <i type="logical" name="LSPIRAL"> F  </i>
    <v name="QSPIRAL">      0.00000000      0.00000000      0.00000000</v>
    <i type="logical" name="LZEROZ"> F  </i>
   </separator>
   <separator name="electronic exchange-correlation" >
    <i type="logical" name="LASPH"> F  </i>
    <i type="logical" name="LMETAGGA"> F  </i>
   </separator>
   <separator name="electronic convergence" >
    <i type="int" name="NELM">   200</i>
    <i type="int" name="NELMDL">     0</i>
    <i type="int" name="NELMIN">     2</i>
    <i name="ENINI">    500.00000000</i>
    <separator name="electronic convergence detail" >
     <i type="logical" name="LDIAG"> T  </i>
     <i type="logical" name="LSUBROT"> F  </i>
     <i name="WEIMIN">      0.00000000</i>
     <i name="EBREAK">      0.00000000</i>
     <i name="DEPER">      0.30000000</i>
     <i type="int" name="NRMM">     4</i>
     <i name="TIME">      0.40000000</i>
    </separator>
   </separator>
   <separator name="electronic mixer" >
    <i name="AMIX">      0.40000000</i>
    <i name="BMIX">      1.00000000</i>
    <i name="AMIN">      0.10000000</i>
    <i name="AMIX_MAG">      1.60000000</i>
    <i name="BMIX_MAG">      1.00000000</i>
    <separator name="electronic mixer details" >
     <i type="int" name="IMIX">     4</i>
     <i type="logical" name="MIXFIRST"> F  </i>
     <i type="int" name="MAXMIX">   -45</i>
     <i name="WC">    100.00000000</i>
     <i type="int" name="INIMIX">     1</i>
     <i type="int" name="MIXPRE">     1</i>
     <i type="int" name="MREMOVE">     5</i>
    </separator>
   </separator>
   <separator name="electronic dipolcorrection" >
    <i type="logical" name="LDIPOL"> F  </i>
    <i type="logical" name="LMONO"> F  </i>
    <i type="int" name="IDIPOL">     0</i>
    <i name="EPSILON">      1.00000000</i>
    <v name="DIPOL">   -100.00000000   -100.00000000   -100.00000000</v>
    <i name="EFIELD">      0.00000000</i>
   </separator>
  </separator>
  <separator name="grids" >
   <i type="int" name="NGX">   280</i>
   <i type="int" name="NGY">   280</i>
   <i type="int" name="NGZ">   150</i>
   <i type="int" name="NGXF">   420</i>
   <i type="int" name="NGYF">   420</i>
   <i type="int" name="NGZF">   224</i>
   <i type="logical" name="ADDGRID"> F  </i>
  </separator>
  <separator name="ionic" >
   <i type="int" name="NSW">     0</i>
   <i type="int" name="IBRION">    -1</i>
   <i type="int" name="MDALGO">     0</i>
   <i type="int" name="ISIF">     2</i>
   <i name="PSTRESS">      0.00000000</i>
   <i name="EDIFFG">     -0.01000000</i>
   <i type="int" name="NFREE">     0</i>
   <i name="POTIM">      0.30000000</i>
   <i name="SMASS">     -3.00000000</i>
   <i name="SCALEE">      1.00000000</i>
  </separator>
  <separator name="ionic md" >
   <i name="TEBEG">      0.00010000</i>
   <i name="TEEND">      0.00010000</i>
   <i type="int" name="NBLOCK">     1</i>
   <i type="int" name="KBLOCK">     1</i>
   <i type="int" name="NPACO">   256</i>
   <i name="APACO">     16.00000000</i>
  </separator>
  <separator name="symmetry" >
   <i type="int" name="ISYM">     2</i>
   <i name="SYMPREC">      0.00001000</i>
  </separator>
  <separator name="dos" >
   <i type="int" name="LORBIT">     0</i>
   <v name="RWIGS">     -1.00000000     -1.00000000     -1.00000000</v>
   <i type="int" name="NEDOS">   301</i>
   <i name="EMIN">     10.00000000</i>
   <i name="EMAX">    -10.00000000</i>
   <i name="EFERMI">      0.00000000</i>
  </separator>
  <separator name="writing" >
   <i type="int" name="NWRITE">     0</i>
   <i type="logical" name="LWAVE"> F  </i>
   <i type="logical" name="LDOWNSAMPLE"> F  </i>
   <i type="logical" name="LCHARG"> F  </i>
   <i type="logical" name="LPARD"> F  </i>
   <i type="logical" name="LVTOT"> F  </i>
   <i type="logical" name="LVHAR"> F  </i>
   <i type="logical" name="LELF"> F  </i>
   <i type="logical" name="LOPTICS"> F  </i>
   <v name="STM">      0.00000000      0.00000000      0.00000000      0.00000000      0.00000000      0.00000000      0.00000000</v>
  </separator>
  <separator name="performance" >
   <i type="int" name="NPAR">    16</i>
   <i type="int" name="NSIM">     4</i>
   <i type="int" name="NBLK">    -1</i>
   <i type="logical" name="LPLANE"> T  </i>
   <i type="logical" name="LSCALAPACK"> T  </i>
   <i type="logical" name="LSCAAWARE"> F  </i>
   <i type="logical" name="LSCALU"> F  </i>
   <i type="logical" name="LASYNC"> F  </i>
   <i type="logical" name="LORBITALREAL"> F  </i>
  </separator>
  <separator name="miscellaneous" >
   <i type="int" name="IDIOT">     3</i>
   <i type="int" name="ISPECIAL">     0</i>
   <i type="logical" name="LMUSIC"> F  </i>
   <v name="POMASS">     14.00100000      1.00000000     12.01100000</v>
   <v name="DARWINR">      0.00000000      0.00000000      0.00000000</v>
   <v name="DARWINV">      1.00000000      1.00000000      1.00000000</v>
   <i type="logical" name="LCORR"> T  </i>
  </separator>
  <i type="logical" name="GGA_COMPAT"> T  </i>
  <i type="logical" name="LBERRY"> F  </i>
  <i type="int" name="ICORELEVEL">     0</i>
  <i type="logical" name="LDAU"> F  </i>
  <i type="int" name="I_CONSTRAINED_M">     0</i>
  <separator name="electronic exchange-correlation" >
   <i type="string" name="GGA">PE</i>
   <i type="int" name="VOSKOWN">     0</i>
   <i type="logical" name="LHFCALC"> F  </i>
   <i type="string" name="PRECFOCK"></i>
   <i type="logical" name="LSYMGRAD"> F  </i>
   <i type="logical" name="LHFONE"> F  </i>
   <i type="logical" name="LRHFCALC"> F  </i>
   <i type="logical" name="LTHOMAS"> F  </i>
   <i type="logical" name="LMODELHF"> F  </i>
   <i name="ENCUT4O">     -1.00000000</i>
   <i type="int" name="EXXOEP">     0</i>
   <i type="int" name="FOURORBIT">     0</i>
   <i name="AEXX">      0.00000000</i>
   <i name="HFALPHA">      0.00000000</i>
   <i name="MCALPHA">      0.00000000</i>
   <i name="ALDAX">      1.00000000</i>
   <i name="AGGAX">      1.00000000</i>
   <i name="ALDAC">      1.00000000</i>
   <i name="AGGAC">      1.00000000</i>
   <i type="int" name="NKREDX">     1</i>
   <i type="int" name="NKREDY">     1</i>
   <i type="int" name="NKREDZ">     1</i>
   <i type="logical" name="SHIFTRED"> F  </i>
   <i type="logical" name="ODDONLY"> F  </i>
   <i type="logical" name="EVENONLY"> F  </i>
   <i type="int" name="LMAXFOCK">     0</i>
   <i type="int" name="NMAXFOCKAE">     0</i>
   <i type="logical" name="LFOCKAEDFT"> F  </i>
   <i name="HFSCREEN">      0.00000000</i>
   <i name="HFSCREENC">      0.00000000</i>
   <i type="int" name="NBANDSGWLOW">     0</i>
  </separator>
  <separator name="vdW DFT" >
   <i type="logical" name="LUSE_VDW"> F  </i>
   <i name="Zab_VDW">     -0.84910000</i>
   <i name="PARAM1">      0.12340000</i>
   <i name="PARAM2">      1.00000000</i>
   <i name="PARAM3">      0.00000000</i>
  </separator>
  <separator name="model GW" >
   <i type="int" name="MODEL_GW">     0</i>
   <i name="MODEL_EPS0">     68.96832049</i>
   <i name="MODEL_ALPHA">      1.00000000</i>
  </separator>
  <separator name="linear response parameters" >
   <i type="logical" name="LEPSILON"> F  </i>
   <i type="logical" name="LRPA"> F  </i>
   <i type="logical" name="LNABLA"> F  </i>
   <i type="logical" name="LVEL"> F  </i>
   <i type="int" name="KINTER">     0</i>
   <i name="CSHIFT">      0.10000000</i>
   <i name="OMEGAMAX">     -1.00000000</i>
   <i name="DEG_THRESHOLD">      0.00200000</i>
   <i name="RTIME">     -0.10000000</i>
   <i name="WPLASMAI">      0.00000000</i>
   <v name="DFIELD">      0.00000000      0.00000000      0.00000000</v>
   <v name="WPLASMA">      0.00000000      0.00000000      0.00000000      0.00000000      0.00000000      0.00000000      0.00000000      0.00000000      0.00000000</v>
  </separator>
  <separator name="orbital magnetization" >
   <i type="logical" name="NUCIND"> F  </i>
   <v name="MAGPOS">      0.00000000      0.00000000      0.00000000</v>
   <i type="logical" name="LNICSALL"> T  </i>
   <i type="logical" name="ORBITALMAG"> F  </i>
   <i type="logical" name="LMAGBLOCH"> F  </i>
   <i type="logical" name="LCHIMAG"> F  </i>
   <i type="logical" name="LGAUGE"> T  </i>
   <i type="int" name="MAGATOM">     0</i>
   <v name="MAGDIPOL">      0.00000000      0.00000000      0.00000000</v>
   <v name="AVECCONST">      0.00000000      0.00000000      0.00000000</v>
  </separator>
  <separator name="response functions" >
   <i type="logical" name="LADDER"> F  </i>
   <i type="logical" name="LRPAFORCE"> F  </i>
   <i type="logical" name="LFXC"> F  </i>
   <i type="logical" name="LHARTREE"> T  </i>
   <i type="int" name="IBSE">     0</i>
   <v type="int" name="KPOINT">    -1     0     0     0</v>
   <i type="logical" name="LTCTE"> F  </i>
   <i type="logical" name="LTETE"> F  </i>
   <i type="logical" name="LTRIPLET"> F  </i>
   <i type="logical" name="LFXCEPS"> F  </i>
   <i type="logical" name="LFXHEG"> F  </i>
   <i type="int" name="NATURALO">     2</i>
   <i type="logical" name="L2ORDER"> F  </i>
   <i type="logical" name="LMP2LT"> F  </i>
   <i type="logical" name="LUSEW"> F  </i>
   <i name="ENCUTGW">     -2.00000000</i>
   <i name="ENCUTGWSOFT">     -2.00000000</i>
   <i name="ENCUTLF">     -1.00000000</i>
   <i type="int" name="LMAXMP2">    -1</i>
   <i name="SCISSOR">      0.00000000</i>
   <i type="int" name="NOMEGA">     0</i>
   <i type="int" name="NOMEGAR">     0</i>
   <i type="int" name="NBANDSGW">    -1</i>
   <i type="int" name="NBANDSO">    -1</i>
   <i type="int" name="NBANDSV">    -1</i>
   <i type="int" name="NELM">   200</i>
   <i type="int" name="NELMHF">     1</i>
   <i type="int" name="DIM">     3</i>
   <i type="int" name="ANTIRES">     0</i>
   <i name="OMEGAMAX">    -30.00000000</i>
   <i name="OMEGAMIN">    -30.00000000</i>
   <i name="OMEGATL">   -200.00000000</i>
   <i type="int" name="OMEGAGRID">   140</i>
   <i name="CSHIFT">     -0.10000000</i>
   <i type="logical" name="SELFENERGY"> F  </i>
   <i type="logical" name="LSPECTRAL"> F  </i>
   <i type="logical" name="LSPECTRALGW"> F  </i>
   <i type="logical" name="LSINGLES"> F  </i>
   <i type="logical" name="LFERMIGW"> F  </i>
   <i type="logical" name="ODDONLYGW"> F  </i>
   <i type="logical" name="EVENONLYGW"> F  </i>
   <i type="int" name="NKREDLFX">     1</i>
   <i type="int" name="NKREDLFY">     1</i>
   <i type="int" name="NKREDLFZ">     1</i>
   <i type="int" name="MAXMEM">  2800</i>
   <i type="int" name="TELESCOPE">     0</i>
   <i type="int" name="TAUPAR">     1</i>
   <i type="int" name="OMEGAPAR">    -1</i>
   <i name="LAMBDA">      1.00000000</i>
  </separator>
  <separator name="External order field" >
   <i name="OFIELD_KAPPA">      0.00000000</i>
   <v name="OFIELD_K">      0.00000000      0.00000000      0.00000000</v>
   <i name="OFIELD_Q6_NEAR">      0.00000000</i>
   <i name="OFIELD_Q6_FAR">      0.00000000</i>
   <i name="OFIELD_A">      0.00000000</i>
  </separator>
  <separator name="solvation model" >
   <i type="logical" name="LSOL"> F  </i>
  </separator>
 </parameters>
 <atominfo>
  <atoms>     216 </atoms>
  <types>       3 </types>
  <array name="atoms" >
   <dimension dim="1">ion</dimension>
   <field type="string">element</field>
   <field type="int">atomtype</field>
   <set>
    <rc><c>N </c><c>   1</c></rc>
    <rc><c>N </c><c>   1</c></rc>
    <rc><c>N </c><c>   1</c></rc>
    <rc><c>N </c><c>   1</c></rc>
    <rc><c>N </c><c>   1</c></rc>
    <rc><c>N </c><c>   1</c></rc>
    <rc><c>N </c><c>   1</c></rc>
    <rc><c>N </c><c>   1</c></rc>
    <rc><c>N </c><c>   1</c></rc>
    <rc><c>N </c><c>   1</c></rc>
    <rc><c>N </c><c>   1</c></rc>
    <rc><c>N </c><c>   1</c></rc>
    <rc><c>N </c><c>   1</c></rc>
    <rc><c>N </c><c>   1</c></rc>
    <rc><c>N </c><c>   1</c></rc>
    <rc><c>N </c><c>   1</c></rc>
    <rc><c>N </c><c>   1</c></rc>
    <rc><c>N </c><c>   1</c></rc>
    <rc><c>N </c><c>   1</c></rc>
    <rc><c>N </c><c>   1</c></rc>
    <rc><c>N </c><c>   1</c></rc>
    <rc><c>N </c><c>   1</c></rc>
    <rc><c>N </c><c>   1</c></rc>
    <rc><c>N </c><c>   1</c></rc>
    <rc><c>N </c><c>   1</c></rc>
    <rc><c>N </c><c>   1</c></rc>
    <rc><c>N </c><c>   1</c></rc>
    <rc><c>N </c><c>   1</c></rc>
    <rc><c>N </c><c>   1</c></rc>
    <rc><c>N </c><c>   1</c></rc>
    <rc><c>N </c><c>   1</c></rc>
    <rc><c>N </c><c>   1</c></rc>
    <rc><c>N </c><c>   1</c></rc>
    <rc><c>N </c><c>   1</c></rc>
    <rc><c>N </c><c>   1</c></rc>
    <rc><c>N </c><c>   1</c></rc>
    <rc><c>N </c><c>   1</c></rc>
    <rc><c>N </c><c>   1</c></rc>
    <rc><c>N </c><c>   1</c></rc>
    <rc><c>N </c><c>   1</c></rc>
    <rc><c>N </c><c>   1</c></rc>
    <rc><c>N </c><c>   1</c></rc>
    <rc><c>N </c><c>   1</c></rc>
    <rc><c>N </c><c>   1</c></rc>
    <rc><c>N </c><c>   1</c></rc>
    <rc><c>N </c><c>   1</c></rc>
    <rc><c>N </c><c>   1</c></rc>
    <rc><c>N </c><c>   1</c></rc>
    <rc><c>N </c><c>   1</c></rc>
    <rc><c>N </c><c>   1</c></rc>
    <rc><c>N </c><c>   1</c></rc>
    <rc><c>N </c><c>   1</c></rc>
    <rc><c>N </c><c>   1</c></rc>
    <rc><c>N </c><c>   1</c></rc>
    <rc><c>N </c><c>   1</c></rc>
    <rc><c>N </c><c>   1</c></rc>
    <rc><c>N </c><c>   1</c></rc>
    <rc><c>N </c><c>   1</c></rc>
    <rc><c>N </c><c>   1</c></rc>
    <rc><c>N </c><c>   1</c></rc>
    <rc><c>N </c><c>   1</c></rc>
    <rc><c>N </c><c>   1</c></rc>
    <rc><c>N </c><c>   1</c></rc>
    <rc><c>N </c><c>   1</c></rc>
    <rc><c>N </c><c>   1</c></rc>
    <rc><c>N </c><c>   1</c></rc>
    <rc><c>N </c><c>   1</c></rc>
    <rc><c>N </c><c>   1</c></rc>
    <rc><c>N </c><c>   1</c></rc>
    <rc><c>N </c><c>   1</c></rc>
    <rc><c>N </c><c>   1</c></rc>
    <rc><c>N </c><c>   1</c></rc>
    <rc><c>H </c><c>   2</c></rc>
    <rc><c>H </c><c>   2</c></rc>
    <rc><c>H </c><c>   2</c></rc>
    <rc><c>H </c><c>   2</c></rc>
    <rc><c>H </c><c>   2</c></rc>
    <rc><c>H </c><c>   2</c></rc>
    <rc><c>H </c><c>   2</c></rc>
    <rc><c>H </c><c>   2</c></rc>
    <rc><c>H </c><c>   2</c></rc>
    <rc><c>H </c><c>   2</c></rc>
    <rc><c>H </c><c>   2</c></rc>
    <rc><c>H </c><c>   2</c></rc>
    <rc><c>H </c><c>   2</c></rc>
    <rc><c>H </c><c>   2</c></rc>
    <rc><c>H </c><c>   2</c></rc>
    <rc><c>H </c><c>   2</c></rc>
    <rc><c>H </c><c>   2</c></rc>
    <rc><c>H </c><c>   2</c></rc>
    <rc><c>H </c><c>   2</c></rc>
    <rc><c>H </c><c>   2</c></rc>
    <rc><c>H </c><c>   2</c></rc>
    <rc><c>H </c><c>   2</c></rc>
    <rc><c>H </c><c>   2</c></rc>
    <rc><c>H </c><c>   2</c></rc>
    <rc><c>H </c><c>   2</c></rc>
    <rc><c>H </c><c>   2</c></rc>
    <rc><c>H </c><c>   2</c></rc>
    <rc><c>H </c><c>   2</c></rc>
    <rc><c>H </c><c>   2</c></rc>
    <rc><c>H </c><c>   2</c></rc>
    <rc><c>H </c><c>   2</c></rc>
    <rc><c>H </c><c>   2</c></rc>
    <rc><c>H </c><c>   2</c></rc>
    <rc><c>H </c><c>   2</c></rc>
    <rc><c>H </c><c>   2</c></rc>
    <rc><c>H </c><c>   2</c></rc>
    <rc><c>C </c><c>   3</c></rc>
    <rc><c>C </c><c>   3</c></rc>
    <rc><c>C </c><c>   3</c></rc>
    <rc><c>C </c><c>   3</c></rc>
    <rc><c>C </c><c>   3</c></rc>
    <rc><c>C </c><c>   3</c></rc>
    <rc><c>C </c><c>   3</c></rc>
    <rc><c>C </c><c>   3</c></rc>
    <rc><c>C </c><c>   3</c></rc>
    <rc><c>C </c><c>   3</c></rc>
    <rc><c>C </c><c>   3</c></rc>
    <rc><c>C </c><c>   3</c></rc>
    <rc><c>C </c><c>   3</c></rc>
    <rc><c>C </c><c>   3</c></rc>
    <rc><c>C </c><c>   3</c></rc>
    <rc><c>C </c><c>   3</c></rc>
    <rc><c>C </c><c>   3</c></rc>
    <rc><c>C </c><c>   3</c></rc>
    <rc><c>C </c><c>   3</c></rc>
    <rc><c>C </c><c>   3</c></rc>
    <rc><c>C </c><c>   3</c></rc>
    <rc><c>C </c><c>   3</c></rc>
    <rc><c>C </c><c>   3</c></rc>
    <rc><c>C </c><c>   3</c></rc>
    <rc><c>C </c><c>   3</c></rc>
    <rc><c>C </c><c>   3</c></rc>
    <rc><c>C </c><c>   3</c></rc>
    <rc><c>C </c><c>   3</c></rc>
    <rc><c>C </c><c>   3</c></rc>
    <rc><c>C </c><c>   3</c></rc>
    <rc><c>C </c><c>   3</c></rc>
    <rc><c>C </c><c>   3</c></rc>
    <rc><c>C </c><c>   3</c></rc>
    <rc><c>C </c><c>   3</c></rc>
    <rc><c>C </c><c>   3</c></rc>
    <rc><c>C </c><c>   3</c></rc>
    <rc><c>C </c><c>   3</c></rc>
    <rc><c>C </c><c>   3</c></rc>
    <rc><c>C </c><c>   3</c></rc>
    <rc><c>C </c><c>   3</c></rc>
    <rc><c>C </c><c>   3</c></rc>
    <rc><c>C </c><c>   3</c></rc>
    <rc><c>C </c><c>   3</c></rc>
    <rc><c>C </c><c>   3</c></rc>
    <rc><c>C </c><c>   3</c></rc>
    <rc><c>C </c><c>   3</c></rc>
    <rc><c>C </c><c>   3</c></rc>
    <rc><c>C </c><c>   3</c></rc>
    <rc><c>C </c><c>   3</c></rc>
    <rc><c>C </c><c>   3</c></rc>
    <rc><c>C </c><c>   3</c></rc>
    <rc><c>C </c><c>   3</c></rc>
    <rc><c>C </c><c>   3</c></rc>
    <rc><c>C </c><c>   3</c></rc>
    <rc><c>C </c><c>   3</c></rc>
    <rc><c>C </c><c>   3</c></rc>
    <rc><c>C </c><c>   3</c></rc>
    <rc><c>C </c><c>   3</c></rc>
    <rc><c>C </c><c>   3</c></rc>
    <rc><c>C </c><c>   3</c></rc>
    <rc><c>C </c><c>   3</c></rc>
    <rc><c>C </c><c>   3</c></rc>
    <rc><c>C </c><c>   3</c></rc>
    <rc><c>C </c><c>   3</c></rc>
    <rc><c>C </c><c>   3</c></rc>
    <rc><c>C </c><c>   3</c></rc>
    <rc><c>C </c><c>   3</c></rc>
    <rc><c>C </c><c>   3</c></rc>
    <rc><c>C </c><c>   3</c></rc>
    <rc><c>C </c><c>   3</c></rc>
    <rc><c>C </c><c>   3</c></rc>
    <rc><c>C </c><c>   3</c></rc>
    <rc><c>C </c><c>   3</c></rc>
    <rc><c>C </c><c>   3</c></rc>
    <rc><c>C </c><c>   3</c></rc>
    <rc><c>C </c><c>   3</c></rc>
    <rc><c>C </c><c>   3</c></rc>
    <rc><c>C </c><c>   3</c></rc>
    <rc><c>C </c><c>   3</c></rc>
    <rc><c>C </c><c>   3</c></rc>
    <rc><c>C </c><c>   3</c></rc>
    <rc><c>C </c><c>   3</c></rc>
    <rc><c>C </c><c>   3</c></rc>
    <rc><c>C </c><c>   3</c></rc>
    <rc><c>C </c><c>   3</c></rc>
    <rc><c>C </c><c>   3</c></rc>
    <rc><c>C </c><c>   3</c></rc>
    <rc><c>C </c><c>   3</c></rc>
    <rc><c>C </c><c>   3</c></rc>
    <rc><c>C </c><c>   3</c></rc>
    <rc><c>C </c><c>   3</c></rc>
    <rc><c>C </c><c>   3</c></rc>
    <rc><c>C </c><c>   3</c></rc>
    <rc><c>C </c><c>   3</c></rc>
    <rc><c>C </c><c>   3</c></rc>
    <rc><c>C </c><c>   3</c></rc>
    <rc><c>C </c><c>   3</c></rc>
    <rc><c>C </c><c>   3</c></rc>
    <rc><c>C </c><c>   3</c></rc>
    <rc><c>C </c><c>   3</c></rc>
    <rc><c>C </c><c>   3</c></rc>
    <rc><c>C </c><c>   3</c></rc>
    <rc><c>C </c><c>   3</c></rc>
    <rc><c>C </c><c>   3</c></rc>
    <rc><c>C </c><c>   3</c></rc>
    <rc><c>C </c><c>   3</c></rc>
    <rc><c>C </c><c>   3</c></rc>
    <rc><c>C </c><c>   3</c></rc>
   </set>
  </array>
  <array name="atomtypes" >
   <dimension dim="1">type</dimension>
   <field type="int">atomspertype</field>
   <field type="string">element</field>
   <field>mass</field>
   <field>valence</field>
   <field type="string">pseudopotential</field>
   <set>
    <rc><c>  72</c><c>N </c><c>     14.00100000</c><c>      5.00000000</c><c>  PAW_PBE N 08Apr2002                   </c></rc>
    <rc><c>  36</c><c>H </c><c>      1.00000000</c><c>      1.00000000</c><c>  PAW_PBE H 15Jun2001                   </c></rc>
    <rc><c> 108</c><c>C </c><c>     12.01100000</c><c>      4.00000000</c><c>  PAW_PBE C 08Apr2002                   </c></rc>
   </set>
  </array>
 </atominfo>
 <structure name="initialpos" >
  <crystal>
   <varray name="basis" >
    <v>      37.90653906      -0.03287220       0.00000000 </v>
    <v>     -18.98352384      32.76621474       0.00000000 </v>
    <v>       0.00000000       0.00000000      20.00000000 </v>
   </varray>
   <i name="volume">  24828.59537513 </i>
   <varray name="rec_basis" >
    <v>       0.02639393       0.01529166       0.00000000 </v>
    <v>       0.00002648       0.03053458       0.00000000 </v>
    <v>       0.00000000       0.00000000       0.05000000 </v>
   </varray>
  </crystal>
  <varray name="positions" >
   <v>       0.13405072       0.69955768       0.52448351 </v>
   <v>       0.17678589       0.66981113       0.52985561 </v>
   <v>       0.10887460       0.63050336       0.49015152 </v>
   <v>       0.31743711       0.40878429       0.52090879 </v>
   <v>       0.32192711       0.88414784       0.51917175 </v>
   <v>       0.13280794       0.40969873       0.51660361 </v>
   <v>       0.17742973       0.48204781       0.52702065 </v>
   <v>       0.11074105       0.45600368       0.48329831 </v>
   <v>       0.20700685       0.77571971       0.52552090 </v>
   <v>       0.27511826       0.47108377       0.57547796 </v>
   <v>       0.17995045       0.55895434       0.53678709 </v>
   <v>       0.04252108       0.66391843       0.53637120 </v>
   <v>       0.27849884       0.77879744       0.57065536 </v>
   <v>       0.20384130       0.40362364       0.52680216 </v>
   <v>       0.12208092       0.56781860       0.46187887 </v>
   <v>       0.04524463       0.39338752       0.42450977 </v>
   <v>       0.61206107       0.88768250       0.53151481 </v>
   <v>       0.53936988       0.84527817       0.53578430 </v>
   <v>       0.56887706       0.91225856       0.49144462 </v>
   <v>       0.34783615       0.48107600       0.53463742 </v>
   <v>       0.38674536       0.45346642       0.48928163 </v>
   <v>       0.90957681       0.29760577       0.50315982 </v>
   <v>       0.86762675       0.32818817       0.50885847 </v>
   <v>       0.93498616       0.36635344       0.46674232 </v>
   <v>       0.43145925       0.11091552       0.51531355 </v>
   <v>       0.50379215       0.15347345       0.52934102 </v>
   <v>       0.47583101       0.08376707       0.50084416 </v>
   <v>       0.72280131       0.58976911       0.53313284 </v>
   <v>       0.69167099       0.51715719       0.54554559 </v>
   <v>       0.65051072       0.54656066       0.52442364 </v>
   <v>       0.43247079       0.29782368       0.51550148 </v>
   <v>       0.50449628       0.32989289       0.53357896 </v>
   <v>       0.47455849       0.37018611       0.50692435 </v>
   <v>       0.72351141       0.11380315       0.52588267 </v>
   <v>       0.69165367       0.15447904       0.53638188 </v>
   <v>       0.65184092       0.08397993       0.50949538 </v>
   <v>       0.90728238       0.58540232       0.51195503 </v>
   <v>       0.86451109       0.51258052       0.51015739 </v>
   <v>       0.93456575       0.54288289       0.48209021 </v>
   <v>       0.60486629       0.69883866       0.54297190 </v>
   <v>       0.53229931       0.67056659       0.54282928 </v>
   <v>       0.56088430       0.63005932       0.50898744 </v>
   <v>       0.35099380       0.84071757       0.52495788 </v>
   <v>       0.39142747       0.90960804       0.48943881 </v>
   <v>       0.61401622       0.81413952       0.54040108 </v>
   <v>       0.83625466       0.22184521       0.51284528 </v>
   <v>       0.42846038       0.18433330       0.51332379 </v>
   <v>       0.79932552       0.59149292       0.54741281 </v>
   <v>       0.42510032       0.83926973       0.53327615 </v>
   <v>       0.45609388       0.59510247       0.54691497 </v>
   <v>       0.86358524       0.43733118       0.51686141 </v>
   <v>       0.58284896       0.08561966       0.53403324 </v>
   <v>       0.54430921       0.43819866       0.54512468 </v>
   <v>       0.66903187       0.97797448       0.54104220 </v>
   <v>       0.34999961       0.35102243       0.52735421 </v>
   <v>       0.99968501       0.33068530       0.51469725 </v>
   <v>       0.37501900       0.01785087       0.53235100 </v>
   <v>       0.68544643       0.64641030       0.55763555 </v>
   <v>       0.54416253       0.74432166       0.58763968 </v>
   <v>       0.76668025       0.22137566       0.56251920 </v>
   <v>       0.49752089       0.25632111       0.55771058 </v>
   <v>       0.79788259       0.51849472       0.51520214 </v>
   <v>       0.49346270       0.90094737       0.46601316 </v>
   <v>       0.45055282       0.53053665       0.46945895 </v>
   <v>       0.92551558       0.43211136       0.44799861 </v>
   <v>       0.58200366       0.15919381       0.52225297 </v>
   <v>       0.61909570       0.43984804       0.53337973 </v>
   <v>       0.00079923       0.60852321       0.43399786 </v>
   <v>       0.65388617       0.02200114       0.44528054 </v>
   <v>       0.41362551       0.37082601       0.43829038 </v>
   <v>       0.39398519       0.97627587       0.43699656 </v>
   <v>       0.62628683       0.62844952       0.45991486 </v>
   <v>       0.24275269       0.83844114       0.51126948 </v>
   <v>       0.23892373       0.49630775       0.59795970 </v>
   <v>       0.20331120       0.61970452       0.56398726 </v>
   <v>       0.05539421       0.33960514       0.55009619 </v>
   <v>       0.24175509       0.71778209       0.59573303 </v>
   <v>       0.23846976       0.37521940       0.51693546 </v>
   <v>       0.10155935       0.50867450       0.42880363 </v>
   <v>       0.05751065       0.62635440       0.39290541 </v>
   <v>       0.63982320       0.77713036       0.53173754 </v>
   <v>       0.79984565       0.15869013       0.50727158 </v>
   <v>       0.40148063       0.22000417       0.50024415 </v>
   <v>       0.86250703       0.61822172       0.54955491 </v>
   <v>       0.46213768       0.81521892       0.55766617 </v>
   <v>       0.39448795       0.55640544       0.56785651 </v>
   <v>       0.83863441       0.37534474       0.53588811 </v>
   <v>       0.51976779       0.05710338       0.53750187 </v>
   <v>       0.57891522       0.50086985       0.55881737 </v>
   <v>       0.98564598       0.65341468       0.56818544 </v>
   <v>       0.71565729       0.03412372       0.57554463 </v>
   <v>       0.35789319       0.30285823       0.55833981 </v>
   <v>       0.32846380       0.96056169       0.56303378 </v>
   <v>       0.67354461       0.69184334       0.58973123 </v>
   <v>       0.52131536       0.78268223       0.60859710 </v>
   <v>       0.80432766       0.28361855       0.57701414 </v>
   <v>       0.52319548       0.22013176       0.57648111 </v>
   <v>       0.73491090       0.49159279       0.51387317 </v>
   <v>       0.45519879       0.92217195       0.43480806 </v>
   <v>       0.51059183       0.57056421       0.44222858 </v>
   <v>       0.94844529       0.49313956       0.42386333 </v>
   <v>       0.64543015       0.18790315       0.52462275 </v>
   <v>       0.58423919       0.37645300       0.52699100 </v>
   <v>       0.61562600       0.96641830       0.39970160 </v>
   <v>       0.39862180       0.41132751       0.39506911 </v>
   <v>       0.99052952       0.37704689       0.37704086 </v>
   <v>       0.43283040       0.03290710       0.39525765 </v>
   <v>       0.64537458       0.59101624       0.41726164 </v>
   <v>       0.10448523       0.66292676       0.50330741 </v>
   <v>       0.17022487       0.70165083       0.53349646 </v>
   <v>       0.14507005       0.63490632       0.50723572 </v>
   <v>       0.31590513       0.44278816       0.53540264 </v>
   <v>       0.31976402       0.84781060       0.52957092 </v>
   <v>       0.10504897       0.41835650       0.49220450 </v>
   <v>       0.16922707       0.44304847       0.52954870 </v>
   <v>       0.14672108       0.48671860       0.50447924 </v>
   <v>       0.24262937       0.81072217       0.52669093 </v>
   <v>       0.23977045       0.47047388       0.57551094 </v>
   <v>       0.14949671       0.59811062       0.50090316 </v>
   <v>       0.17960681       0.59411805       0.53567633 </v>
   <v>       0.15087550       0.52794229       0.50108813 </v>
   <v>       0.04059403       0.35028292       0.51524405 </v>
   <v>       0.20721726       0.74198354       0.54548230 </v>
   <v>       0.24268028       0.74440496       0.57287856 </v>
   <v>       0.27910849       0.81175135       0.54429530 </v>
   <v>       0.27543464       0.43847692       0.54963203 </v>
   <v>       0.23882850       0.40325727       0.53093686 </v>
   <v>       0.20468978       0.43808154       0.54553296 </v>
   <v>       0.12320967       0.53328994       0.46107388 </v>
   <v>       0.06201659       0.65384985       0.49130540 </v>
   <v>       0.04114042       0.62952361       0.43524727 </v>
   <v>       0.06312211       0.38520899       0.47549008 </v>
   <v>       0.60549054       0.91690359       0.50721157 </v>
   <v>       0.57765110       0.85179799       0.54155295 </v>
   <v>       0.53672294       0.87653767       0.50970378 </v>
   <v>       0.35416450       0.41621726       0.49971035 </v>
   <v>       0.38238209       0.48477201       0.50973557 </v>
   <v>       0.93916918       0.33387767       0.48063318 </v>
   <v>       0.87378231       0.29615304       0.51322281 </v>
   <v>       0.89930581       0.36265734       0.48490945 </v>
   <v>       0.43880895       0.08042399       0.50292727 </v>
   <v>       0.46556249       0.14726559       0.52531955 </v>
   <v>       0.50727999       0.12061573       0.51753872 </v>
   <v>       0.68484949       0.58323855       0.52538463 </v>
   <v>       0.72428224       0.55509236       0.54013259 </v>
   <v>       0.65544233       0.51444858       0.53718540 </v>
   <v>       0.43859453       0.33535846       0.50337463 </v>
   <v>       0.46707776       0.29694756       0.52813311 </v>
   <v>       0.50617315       0.36581075       0.52474769 </v>
   <v>       0.68639488       0.08245298       0.51123698 </v>
   <v>       0.72441755       0.14963032       0.53514014 </v>
   <v>       0.65593414       0.12019158       0.52522985 </v>
   <v>       0.93792422       0.57937365       0.49340540 </v>
   <v>       0.87068311       0.55059362       0.51587822 </v>
   <v>       0.89762092       0.51048095       0.49409318 </v>
   <v>       0.59782735       0.66239325       0.52107322 </v>
   <v>       0.57077809       0.70141560       0.55030149 </v>
   <v>       0.52915297       0.63529230       0.52292477 </v>
   <v>       0.35864348       0.91376970       0.49831446 </v>
   <v>       0.38635919       0.87292911       0.50555622 </v>
   <v>       0.61246280       0.77822043       0.54508631 </v>
   <v>       0.80076119       0.18716114       0.52004731 </v>
   <v>       0.42909750       0.21992483       0.51549403 </v>
   <v>       0.83369412       0.58990548       0.54149898 </v>
   <v>       0.49562384       0.87203486       0.50178760 </v>
   <v>       0.46073714       0.84005921       0.53245905 </v>
   <v>       0.42378613       0.86969292       0.50109778 </v>
   <v>       0.41896890       0.52631660       0.50618883 </v>
   <v>       0.42123708       0.55942957       0.54197873 </v>
   <v>       0.48841439       0.59819281       0.51412372 </v>
   <v>       0.89567458       0.39989020       0.48062825 </v>
   <v>       0.86384108       0.40226566       0.51254399 </v>
   <v>       0.89466150       0.46998780       0.48741507 </v>
   <v>       0.54740764       0.12281597       0.52379976 </v>
   <v>       0.54811499       0.08619656       0.53220465 </v>
   <v>       0.61753591       0.12177846       0.52883143 </v>
   <v>       0.61727246       0.47419573       0.54021111 </v>
   <v>       0.57974904       0.47295190       0.54895887 </v>
   <v>       0.54594901       0.40400946       0.53456147 </v>
   <v>       0.00167222       0.64499300       0.53186905 </v>
   <v>       0.69075119       0.01890284       0.53965536 </v>
   <v>       0.36927455       0.32945425       0.52562039 </v>
   <v>       0.35417148       0.97688633       0.52892422 </v>
   <v>       0.66496734       0.66681609       0.55445152 </v>
   <v>       0.58028923       0.81499944       0.55800365 </v>
   <v>       0.54663267       0.78057899       0.58699513 </v>
   <v>       0.57623053       0.74247523       0.56334919 </v>
   <v>       0.83687228       0.25650555       0.52937069 </v>
   <v>       0.80249880       0.25570640       0.55818315 </v>
   <v>       0.76518363       0.18703223       0.54088812 </v>
   <v>       0.46266471       0.18482875       0.53251281 </v>
   <v>       0.49653274       0.22073202       0.55742505 </v>
   <v>       0.46420299       0.25642574       0.53486587 </v>
   <v>       0.76416717       0.55634177       0.53785865 </v>
   <v>       0.76375068       0.51982379       0.52195044 </v>
   <v>       0.83320943       0.55348734       0.52523846 </v>
   <v>       0.45762539       0.89934571       0.46462432 </v>
   <v>       0.48484488       0.56643179       0.47253544 </v>
   <v>       0.92470374       0.46677727       0.45065185 </v>
   <v>       0.61696445       0.15862537       0.52550647 </v>
   <v>       0.58345731       0.40478044       0.53175418 </v>
   <v>       0.98068235       0.61357544       0.48509507 </v>
   <v>       0.63903295       0.95944270       0.49623183 </v>
   <v>       0.63513408       0.98167874       0.44268832 </v>
   <v>       0.67922721       0.04076096       0.49679683 </v>
   <v>       0.36360949       0.38322427       0.48649579 </v>
   <v>       0.39227958       0.38971713       0.43572302 </v>
   <v>       0.40463738       0.34299324       0.48672223 </v>
   <v>       0.98188491       0.34338488       0.47066688 </v>
   <v>       0.00504714       0.37153859       0.41973414 </v>
   <v>       0.40596899       0.03762738       0.48961400 </v>
   <v>       0.41212040       0.01660458       0.43654668 </v>
   <v>       0.36715172       0.95615567       0.48627660 </v>
   <v>       0.67527217       0.61639317       0.51341634 </v>
   <v>       0.64887626       0.61086373       0.45940677 </v>
   <v>       0.63190614       0.65418978       0.51042835 </v>
  </varray>
 </structure>
 <calculation>
  <scstep>
   <time name="dav"> 1372.03 1387.21</time>
   <time name="total"> 1372.43 1387.61</time>
   <energy>
    <i name="alphaZ">    128.63257402 </i>
    <i name="ewald"> 109931.42037229 </i>
    <i name="hartreedc">-138860.99896271 </i>
    <i name="XCdc">   3039.81157004 </i>
    <i name="pawpsdc">  82308.19615531 </i>
    <i name="pawaedc"> -82481.94583445 </i>
    <i name="eentropy">     -0.00000000 </i>
    <i name="bandstr"> -11128.58074813 </i>
    <i name="atom">  35388.05017745 </i>
    <i name="e_fr_energy">  -1675.41469619 </i>
    <i name="e_wo_entrp">  -1675.41469619 </i>
    <i name="e_0_energy">  -1675.41469619 </i>
   </energy>
  </scstep>
  <scstep>
   <time name="dav"> 1529.42 1547.20</time>
   <time name="total"> 1529.44 1547.22</time>
   <energy>
    <i name="e_fr_energy">  -1676.12742463 </i>
    <i name="e_wo_entrp">  -1676.12742463 </i>
    <i name="e_0_energy">  -1676.12742463 </i>
   </energy>
  </scstep>
  <scstep>
   <time name="dav"> 1809.06 1828.74</time>
   <time name="total"> 1809.07 1828.75</time>
   <energy>
    <i name="e_fr_energy">  -1676.14940420 </i>
    <i name="e_wo_entrp">  -1676.14940420 </i>
    <i name="e_0_energy">  -1676.14940420 </i>
   </energy>
  </scstep>
  <scstep>
   <time name="dav"> 1540.38 1556.33</time>
   <time name="total"> 1540.39 1556.34</time>
   <energy>
    <i name="e_fr_energy">  -1676.14960782 </i>
    <i name="e_wo_entrp">  -1676.14960782 </i>
    <i name="e_0_energy">  -1676.14960782 </i>
   </energy>
  </scstep>
  <scstep>
   <time name="dav"> 1384.09 1400.52</time>
   <time name="total"> 1384.11 1400.54</time>
   <energy>
    <i name="alphaZ">    128.63257402 </i>
    <i name="ewald"> 109931.42037229 </i>
    <i name="hartreedc">-138860.99896271 </i>
    <i name="XCdc">   3039.81157004 </i>
    <i name="pawpsdc">  82308.19615531 </i>
    <i name="pawaedc"> -82481.94583445 </i>
    <i name="eentropy">     -0.00000000 </i>
    <i name="bandstr"> -11129.31566929 </i>
    <i name="atom">  35388.05017745 </i>
    <i name="e_fr_energy">  -1676.14961734 </i>
    <i name="e_wo_entrp">  -1676.14961734 </i>
    <i name="e_0_energy">  -1676.14961734 </i>
   </energy>
  </scstep>
  <structure>
   <crystal>
    <varray name="basis" >
     <v>      37.90653906      -0.03287220       0.00000000 </v>
     <v>     -18.98352384      32.76621474       0.00000000 </v>
     <v>       0.00000000       0.00000000      20.00000000 </v>
    </varray>
    <i name="volume">  24828.59537513 </i>
    <varray name="rec_basis" >
     <v>       0.02639393       0.01529166       0.00000000 </v>
     <v>       0.00002648       0.03053458       0.00000000 </v>
     <v>       0.00000000       0.00000000       0.05000000 </v>
    </varray>
   </crystal>
   <varray name="positions" >
    <v>       0.13405072       0.69955768       0.52448351 </v>
    <v>       0.17678589       0.66981113       0.52985561 </v>
    <v>       0.10887460       0.63050336       0.49015152 </v>
    <v>       0.31743711       0.40878429       0.52090879 </v>
    <v>       0.32192711       0.88414784       0.51917175 </v>
    <v>       0.13280794       0.40969873       0.51660361 </v>
    <v>       0.17742973       0.48204781       0.52702065 </v>
    <v>       0.11074105       0.45600368       0.48329831 </v>
    <v>       0.20700685       0.77571971       0.52552090 </v>
    <v>       0.27511826       0.47108377       0.57547796 </v>
    <v>       0.17995045       0.55895434       0.53678709 </v>
    <v>       0.04252108       0.66391843       0.53637120 </v>
    <v>       0.27849884       0.77879744       0.57065536 </v>
    <v>       0.20384130       0.40362364       0.52680216 </v>
    <v>       0.12208092       0.56781860       0.46187887 </v>
    <v>       0.04524463       0.39338752       0.42450977 </v>
    <v>       0.61206107       0.88768250       0.53151481 </v>
    <v>       0.53936988       0.84527817       0.53578430 </v>
    <v>       0.56887706       0.91225856       0.49144462 </v>
    <v>       0.34783615       0.48107600       0.53463742 </v>
    <v>       0.38674536       0.45346642       0.48928163 </v>
    <v>       0.90957681       0.29760577       0.50315982 </v>
    <v>       0.86762675       0.32818817       0.50885847 </v>
    <v>       0.93498616       0.36635344       0.46674232 </v>
    <v>       0.43145925       0.11091552       0.51531355 </v>
    <v>       0.50379215       0.15347345       0.52934102 </v>
    <v>       0.47583101       0.08376707       0.50084416 </v>
    <v>       0.72280131       0.58976911       0.53313284 </v>
    <v>       0.69167099       0.51715719       0.54554559 </v>
    <v>       0.65051072       0.54656066       0.52442364 </v>
    <v>       0.43247079       0.29782368       0.51550148 </v>
    <v>       0.50449628       0.32989289       0.53357896 </v>
    <v>       0.47455849       0.37018611       0.50692435 </v>
    <v>       0.72351141       0.11380315       0.52588267 </v>
    <v>       0.69165367       0.15447904       0.53638188 </v>
    <v>       0.65184092       0.08397993       0.50949538 </v>
    <v>       0.90728238       0.58540232       0.51195503 </v>
    <v>       0.86451109       0.51258052       0.51015739 </v>
    <v>       0.93456575       0.54288289       0.48209021 </v>
    <v>       0.60486629       0.69883866       0.54297190 </v>
    <v>       0.53229931       0.67056659       0.54282928 </v>
    <v>       0.56088430       0.63005932       0.50898744 </v>
    <v>       0.35099380       0.84071757       0.52495788 </v>
    <v>       0.39142747       0.90960804       0.48943881 </v>
    <v>       0.61401622       0.81413952       0.54040108 </v>
    <v>       0.83625466       0.22184521       0.51284528 </v>
    <v>       0.42846038       0.18433330       0.51332379 </v>
    <v>       0.79932552       0.59149292       0.54741281 </v>
    <v>       0.42510032       0.83926973       0.53327615 </v>
    <v>       0.45609388       0.59510247       0.54691497 </v>
    <v>       0.86358524       0.43733118       0.51686141 </v>
    <v>       0.58284896       0.08561966       0.53403324 </v>
    <v>       0.54430921       0.43819866       0.54512468 </v>
    <v>       0.66903187       0.97797448       0.54104220 </v>
    <v>       0.34999961       0.35102243       0.52735421 </v>
    <v>       0.99968501       0.33068530       0.51469725 </v>
    <v>       0.37501900       0.01785087       0.53235100 </v>
    <v>       0.68544643       0.64641030       0.55763555 </v>
    <v>       0.54416253       0.74432166       0.58763968 </v>
    <v>       0.76668025       0.22137566       0.56251920 </v>
    <v>       0.49752089       0.25632111       0.55771058 </v>
    <v>       0.79788259       0.51849472       0.51520214 </v>
    <v>       0.49346270       0.90094737       0.46601316 </v>
    <v>       0.45055282       0.53053665       0.46945895 </v>
    <v>       0.92551558       0.43211136       0.44799861 </v>
    <v>       0.58200366       0.15919381       0.52225297 </v>
    <v>       0.61909570       0.43984804       0.53337973 </v>
    <v>       0.00079923       0.60852321       0.43399786 </v>
    <v>       0.65388617       0.02200114       0.44528054 </v>
    <v>       0.41362551       0.37082601       0.43829038 </v>
    <v>       0.39398519       0.97627587       0.43699656 </v>
    <v>       0.62628683       0.62844952       0.45991486 </v>
    <v>       0.24275269       0.83844114       0.51126948 </v>
    <v>       0.23892373       0.49630775       0.59795970 </v>
    <v>       0.20331120       0.61970452       0.56398726 </v>
    <v>       0.05539421       0.33960514       0.55009619 </v>
    <v>       0.24175509       0.71778209       0.59573303 </v>
    <v>       0.23846976       0.37521940       0.51693546 </v>
    <v>       0.10155935       0.50867450       0.42880363 </v>
    <v>       0.05751065       0.62635440       0.39290541 </v>
    <v>       0.63982320       0.77713036       0.53173754 </v>
    <v>       0.79984565       0.15869013       0.50727158 </v>
    <v>       0.40148063       0.22000417       0.50024415 </v>
    <v>       0.86250703       0.61822172       0.54955491 </v>
    <v>       0.46213768       0.81521892       0.55766617 </v>
    <v>       0.39448795       0.55640544       0.56785651 </v>
    <v>       0.83863441       0.37534474       0.53588811 </v>
    <v>       0.51976779       0.05710338       0.53750187 </v>
    <v>       0.57891522       0.50086985       0.55881737 </v>
    <v>       0.98564598       0.65341468       0.56818544 </v>
    <v>       0.71565729       0.03412372       0.57554463 </v>
    <v>       0.35789319       0.30285823       0.55833981 </v>
    <v>       0.32846380       0.96056169       0.56303378 </v>
    <v>       0.67354461       0.69184334       0.58973123 </v>
    <v>       0.52131536       0.78268223       0.60859710 </v>
    <v>       0.80432766       0.28361855       0.57701414 </v>
    <v>       0.52319548       0.22013176       0.57648111 </v>
    <v>       0.73491090       0.49159279       0.51387317 </v>
    <v>       0.45519879       0.92217195       0.43480806 </v>
    <v>       0.51059183       0.57056421       0.44222858 </v>
    <v>       0.94844529       0.49313956       0.42386333 </v>
    <v>       0.64543015       0.18790315       0.52462275 </v>
    <v>       0.58423919       0.37645300       0.52699100 </v>
    <v>       0.61562600       0.96641830       0.39970160 </v>
    <v>       0.39862180       0.41132751       0.39506911 </v>
    <v>       0.99052952       0.37704689       0.37704086 </v>
    <v>       0.43283040       0.03290710       0.39525765 </v>
    <v>       0.64537458       0.59101624       0.41726164 </v>
    <v>       0.10448523       0.66292676       0.50330741 </v>
    <v>       0.17022487       0.70165083       0.53349646 </v>
    <v>       0.14507005       0.63490632       0.50723572 </v>
    <v>       0.31590513       0.44278816       0.53540264 </v>
    <v>       0.31976402       0.84781060       0.52957092 </v>
    <v>       0.10504897       0.41835650       0.49220450 </v>
    <v>       0.16922707       0.44304847       0.52954870 </v>
    <v>       0.14672108       0.48671860       0.50447924 </v>
    <v>       0.24262937       0.81072217       0.52669093 </v>
    <v>       0.23977045       0.47047388       0.57551094 </v>
    <v>       0.14949671       0.59811062       0.50090316 </v>
    <v>       0.17960681       0.59411805       0.53567633 </v>
    <v>       0.15087550       0.52794229       0.50108813 </v>
    <v>       0.04059403       0.35028292       0.51524405 </v>
    <v>       0.20721726       0.74198354       0.54548230 </v>
    <v>       0.24268028       0.74440496       0.57287856 </v>
    <v>       0.27910849       0.81175135       0.54429530 </v>
    <v>       0.27543464       0.43847692       0.54963203 </v>
    <v>       0.23882850       0.40325727       0.53093686 </v>
    <v>       0.20468978       0.43808154       0.54553296 </v>
    <v>       0.12320967       0.53328994       0.46107388 </v>
    <v>       0.06201659       0.65384985       0.49130540 </v>
    <v>       0.04114042       0.62952361       0.43524727 </v>
    <v>       0.06312211       0.38520899       0.47549008 </v>
    <v>       0.60549054       0.91690359       0.50721157 </v>
    <v>       0.57765110       0.85179799       0.54155295 </v>
    <v>       0.53672294       0.87653767       0.50970378 </v>
    <v>       0.35416450       0.41621726       0.49971035 </v>
    <v>       0.38238209       0.48477201       0.50973557 </v>
    <v>       0.93916918       0.33387767       0.48063318 </v>
    <v>       0.87378231       0.29615304       0.51322281 </v>
    <v>       0.89930581       0.36265734       0.48490945 </v>
    <v>       0.43880895       0.08042399       0.50292727 </v>
    <v>       0.46556249       0.14726559       0.52531955 </v>
    <v>       0.50727999       0.12061573       0.51753872 </v>
    <v>       0.68484949       0.58323855       0.52538463 </v>
    <v>       0.72428224       0.55509236       0.54013259 </v>
    <v>       0.65544233       0.51444858       0.53718540 </v>
    <v>       0.43859453       0.33535846       0.50337463 </v>
    <v>       0.46707776       0.29694756       0.52813311 </v>
    <v>       0.50617315       0.36581075       0.52474769 </v>
    <v>       0.68639488       0.08245298       0.51123698 </v>
    <v>       0.72441755       0.14963032       0.53514014 </v>
    <v>       0.65593414       0.12019158       0.52522985 </v>
    <v>       0.93792422       0.57937365       0.49340540 </v>
    <v>       0.87068311       0.55059362       0.51587822 </v>
    <v>       0.89762092       0.51048095       0.49409318 </v>
[...]
       <r>    -8.9863    44.5609   592.4083 </r>
       <r>    -8.8873    86.7052   602.5782 </r>
       <r>    -8.7884    34.2029   607.6178 </r>
       <r>    -8.6895    31.2933   611.4628 </r>
       <r>    -8.5906    30.5483   615.0221 </r>
       <r>    -8.4916    25.9713   618.0029 </r>
       <r>    -8.3927    35.8891   621.7840 </r>
       <r>    -8.2938    38.4200   625.8008 </r>
       <r>    -8.1949    77.9689   637.1468 </r>
       <r>    -8.0959   118.4417   649.7171 </r>
       <r>    -7.9970   152.3558   667.0728 </r>
       <r>    -7.8981    20.2049   672.0000 </r>
       <r>    -7.7991     0.0000   672.0000 </r>
       <r>    -7.7002     0.0000   672.0000 </r>
       <r>    -7.6013     0.0000   672.0000 </r>
       <r>    -7.5024     0.0000   672.0000 </r>
       <r>    -7.4034     0.0000   672.0000 </r>
       <r>    -7.3045    20.0176   673.9803 </r>
       <r>    -7.2056    92.0508   683.1065 </r>
       <r>    -7.1067   138.6025   699.7116 </r>
       <r>    -7.0077    60.6457   708.0000 </r>
       <r>    -6.9088     0.0000   708.0000 </r>
       <r>    -6.8099    55.1562   713.4564 </r>
       <r>    -6.7109    83.8859   724.2994 </r>
       <r>    -6.6120    89.5180   734.8562 </r>
       <r>    -6.5131    80.8658   744.0000 </r>
       <r>    -6.4142    94.6379   753.3623 </r>
       <r>    -6.3152    80.7123   763.9846 </r>
       <r>    -6.2163    70.4774   772.9721 </r>
       <r>    -6.1174    54.0736   779.3493 </r>
       <r>    -6.0185    86.0992   790.5176 </r>
       <r>    -5.9195     0.0003   792.0000 </r>
       <r>    -5.8206    40.4229   795.9990 </r>
       <r>    -5.7217    80.8557   804.0011 </r>
       <r>    -5.6227   101.8239   814.0742 </r>
       <r>    -5.5238    80.8548   823.9999 </r>
       <r>    -5.4249    40.4338   828.0000 </r>
       <r>    -5.3260     0.0000   828.0000 </r>
       <r>    -5.2270     0.0000   828.0000 </r>
       <r>    -5.1281     0.0000   828.0000 </r>
       <r>    -5.0292     0.0000   828.0000 </r>
       <r>    -4.9303     0.0000   828.0000 </r>
       <r>    -4.8313     0.0000   828.0000 </r>
       <r>    -4.7324     0.0000   828.0000 </r>
       <r>    -4.6335     0.0000   828.0000 </r>
       <r>    -4.5345     0.0000   828.0000 </r>
       <r>    -4.4356     0.0000   828.0000 </r>
       <r>    -4.3367     0.0000   828.0000 </r>
       <r>    -4.2378     0.0000   828.0000 </r>
       <r>    -4.1388     0.0000   828.0000 </r>
       <r>    -4.0399     0.0000   828.0000 </r>
       <r>    -3.9410     0.0000   828.0000 </r>
       <r>    -3.8421     0.0000   828.0000 </r>
       <r>    -3.7431     8.3620   828.8272 </r>
       <r>    -3.6442    44.9563   834.4474 </r>
       <r>    -3.5453    39.7405   840.1990 </r>
       <r>    -3.4464    46.8339   846.0000 </r>
       <r>    -3.3474    28.1397   848.7838 </r>
       <r>    -3.2485    22.1260   851.1889 </r>
       <r>    -3.1496    25.5318   853.8926 </r>
       <r>    -3.0506    31.4236   857.4426 </r>
       <r>    -2.9517     0.0000   858.0000 </r>
       <r>    -2.8528    21.0002   860.0775 </r>
       <r>    -2.7539    12.3804   861.9250 </r>
       <r>    -2.6549    10.0423   862.9935 </r>
       <r>    -2.5560     7.1066   863.8697 </r>
       <r>    -2.4571    42.6752   868.9220 </r>
       <r>    -2.3582    47.0147   874.4516 </r>
       <r>    -2.2592    36.7685   880.1708 </r>
       <r>    -2.1603   118.5299   893.7273 </r>
       <r>    -2.0614    92.8488   904.0877 </r>
       <r>    -1.9624    61.1221   912.0467 </r>
       <r>    -1.8635    13.5997   913.9788 </r>
       <r>    -1.7646    11.5513   915.1427 </r>
       <r>    -1.6657    14.0359   916.6552 </r>
       <r>    -1.5667     5.3901   918.0000 </r>
       <r>    -1.4678     0.0000   918.0000 </r>
       <r>    -1.3689    16.9676   919.6786 </r>
       <r>    -1.2700    22.0560   922.6156 </r>
       <r>    -1.1710    13.7767   924.5630 </r>
       <r>    -1.0721    20.9836   927.4765 </r>
       <r>    -0.9732    19.8468   929.8302 </r>
       <r>    -0.8742     0.0000   930.0000 </r>
       <r>    -0.7753     0.8702   930.0861 </r>
       <r>    -0.6764    32.9117   933.6227 </r>
       <r>    -0.5775    14.5426   935.4388 </r>
       <r>    -0.4785    29.3328   939.2353 </r>
       <r>    -0.3796    30.4306   942.6105 </r>
       <r>    -0.2807    15.1369   945.4975 </r>
       <r>    -0.1818    61.5848   952.0926 </r>
       <r>    -0.0828    30.0000   956.5360 </r>
       <r>     0.0161    34.0019   961.1307 </r>
       <r>     0.1150    40.8817   965.6447 </r>
       <r>     0.2140    24.0700   968.6480 </r>
       <r>     0.3129    35.1242   972.4415 </r>
       <r>     0.4118    55.2516   979.4659 </r>
       <r>     0.5107    75.8135   988.6677 </r>
       <r>     0.6097    69.9464   997.4884 </r>
       <r>     0.7086   101.4076  1009.1993 </r>
       <r>     0.8075   114.0498  1023.1829 </r>
       <r>     0.9064   135.1786  1038.7740 </r>
       <r>     1.0054   117.2124  1053.4635 </r>
       <r>     1.1043    12.1274  1056.0000 </r>
       <r>     1.2032     0.0000  1056.0000 </r>
       <r>     1.3022     0.0000  1056.0000 </r>
       <r>     1.4011     0.0000  1056.0000 </r>
       <r>     1.5000     0.0000  1056.0000 </r>
       <r>     1.5989     0.0000  1056.0000 </r>
       <r>     1.6979     0.0000  1056.0000 </r>
       <r>     1.7968     0.0000  1056.0000 </r>
       <r>     1.8957     0.0000  1056.0000 </r>
       <r>     1.9946     0.0000  1056.0000 </r>
       <r>     2.0936     0.0000  1056.0000 </r>
       <r>     2.1925     0.0000  1056.0000 </r>
       <r>     2.2914     0.0000  1056.0000 </r>
       <r>     2.3903     0.0000  1056.0000 </r>
      </set>
     </set>
    </array>
   </total>
  </dos>
 </calculation>
 <structure name="finalpos" >
  <crystal>
   <varray name="basis" >
    <v>      37.90653906      -0.03287220       0.00000000 </v>
    <v>     -18.98352384      32.76621474       0.00000000 </v>
    <v>       0.00000000       0.00000000      20.00000000 </v>
   </varray>
   <i name="volume">  24828.59537513 </i>
   <varray name="rec_basis" >
    <v>       0.02639393       0.01529166       0.00000000 </v>
    <v>       0.00002648       0.03053458       0.00000000 </v>
    <v>       0.00000000       0.00000000       0.05000000 </v>
   </varray>
  </crystal>
  <varray name="positions" >
   <v>       0.13405072       0.69955768       0.52448351 </v>
   <v>       0.17678589       0.66981113       0.52985561 </v>
   <v>       0.10887460       0.63050336       0.49015152 </v>
   <v>       0.31743711       0.40878429       0.52090879 </v>
   <v>       0.32192711       0.88414784       0.51917175 </v>
   <v>       0.13280794       0.40969873       0.51660361 </v>
   <v>       0.17742973       0.48204781       0.52702065 </v>
   <v>       0.11074105       0.45600368       0.48329831 </v>
   <v>       0.20700685       0.77571971       0.52552090 </v>
   <v>       0.27511826       0.47108377       0.57547796 </v>
   <v>       0.17995045       0.55895434       0.53678709 </v>
   <v>       0.04252108       0.66391843       0.53637120 </v>
   <v>       0.27849884       0.77879744       0.57065536 </v>
   <v>       0.20384130       0.40362364       0.52680216 </v>
   <v>       0.12208092       0.56781860       0.46187887 </v>
   <v>       0.04524463       0.39338752       0.42450977 </v>
   <v>       0.61206107       0.88768250       0.53151481 </v>
   <v>       0.53936988       0.84527817       0.53578430 </v>
   <v>       0.56887706       0.91225856       0.49144462 </v>
   <v>       0.34783615       0.48107600       0.53463742 </v>
   <v>       0.38674536       0.45346642       0.48928163 </v>
   <v>       0.90957681       0.29760577       0.50315982 </v>
   <v>       0.86762675       0.32818817       0.50885847 </v>
   <v>       0.93498616       0.36635344       0.46674232 </v>
   <v>       0.43145925       0.11091552       0.51531355 </v>
   <v>       0.50379215       0.15347345       0.52934102 </v>
   <v>       0.47583101       0.08376707       0.50084416 </v>
   <v>       0.72280131       0.58976911       0.53313284 </v>
   <v>       0.69167099       0.51715719       0.54554559 </v>
   <v>       0.65051072       0.54656066       0.52442364 </v>
   <v>       0.43247079       0.29782368       0.51550148 </v>
   <v>       0.50449628       0.32989289       0.53357896 </v>
   <v>       0.47455849       0.37018611       0.50692435 </v>
   <v>       0.72351141       0.11380315       0.52588267 </v>
   <v>       0.69165367       0.15447904       0.53638188 </v>
   <v>       0.65184092       0.08397993       0.50949538 </v>
   <v>       0.90728238       0.58540232       0.51195503 </v>
   <v>       0.86451109       0.51258052       0.51015739 </v>
   <v>       0.93456575       0.54288289       0.48209021 </v>
   <v>       0.60486629       0.69883866       0.54297190 </v>
   <v>       0.53229931       0.67056659       0.54282928 </v>
   <v>       0.56088430       0.63005932       0.50898744 </v>
   <v>       0.35099380       0.84071757       0.52495788 </v>
   <v>       0.39142747       0.90960804       0.48943881 </v>
   <v>       0.61401622       0.81413952       0.54040108 </v>
   <v>       0.83625466       0.22184521       0.51284528 </v>
   <v>       0.42846038       0.18433330       0.51332379 </v>
   <v>       0.79932552       0.59149292       0.54741281 </v>
   <v>       0.42510032       0.83926973       0.53327615 </v>
   <v>       0.45609388       0.59510247       0.54691497 </v>
   <v>       0.86358524       0.43733118       0.51686141 </v>
   <v>       0.58284896       0.08561966       0.53403324 </v>
   <v>       0.54430921       0.43819866       0.54512468 </v>
   <v>       0.66903187       0.97797448       0.54104220 </v>
   <v>       0.34999961       0.35102243       0.52735421 </v>
   <v>       0.99968501       0.33068530       0.51469725 </v>
   <v>       0.37501900       0.01785087       0.53235100 </v>
   <v>       0.68544643       0.64641030       0.55763555 </v>
   <v>       0.54416253       0.74432166       0.58763968 </v>
   <v>       0.76668025       0.22137566       0.56251920 </v>
   <v>       0.49752089       0.25632111       0.55771058 </v>
   <v>       0.79788259       0.51849472       0.51520214 </v>
   <v>       0.49346270       0.90094737       0.46601316 </v>
   <v>       0.45055282       0.53053665       0.46945895 </v>
   <v>       0.92551558       0.43211136       0.44799861 </v>
   <v>       0.58200366       0.15919381       0.52225297 </v>
   <v>       0.61909570       0.43984804       0.53337973 </v>
   <v>       0.00079923       0.60852321       0.43399786 </v>
   <v>       0.65388617       0.02200114       0.44528054 </v>
   <v>       0.41362551       0.37082601       0.43829038 </v>
   <v>       0.39398519       0.97627587       0.43699656 </v>
   <v>       0.62628683       0.62844952       0.45991486 </v>
   <v>       0.24275269       0.83844114       0.51126948 </v>
   <v>       0.23892373       0.49630775       0.59795970 </v>
   <v>       0.20331120       0.61970452       0.56398726 </v>
   <v>       0.05539421       0.33960514       0.55009619 </v>
   <v>       0.24175509       0.71778209       0.59573303 </v>
   <v>       0.23846976       0.37521940       0.51693546 </v>
   <v>       0.10155935       0.50867450       0.42880363 </v>
   <v>       0.05751065       0.62635440       0.39290541 </v>
   <v>       0.63982320       0.77713036       0.53173754 </v>
   <v>       0.79984565       0.15869013       0.50727158 </v>
   <v>       0.40148063       0.22000417       0.50024415 </v>
   <v>       0.86250703       0.61822172       0.54955491 </v>
   <v>       0.46213768       0.81521892       0.55766617 </v>
   <v>       0.39448795       0.55640544       0.56785651 </v>
   <v>       0.83863441       0.37534474       0.53588811 </v>
   <v>       0.51976779       0.05710338       0.53750187 </v>
   <v>       0.57891522       0.50086985       0.55881737 </v>
   <v>       0.98564598       0.65341468       0.56818544 </v>
   <v>       0.71565729       0.03412372       0.57554463 </v>
   <v>       0.35789319       0.30285823       0.55833981 </v>
   <v>       0.32846380       0.96056169       0.56303378 </v>
   <v>       0.67354461       0.69184334       0.58973123 </v>
   <v>       0.52131536       0.78268223       0.60859710 </v>
   <v>       0.80432766       0.28361855       0.57701414 </v>
   <v>       0.52319548       0.22013176       0.57648111 </v>
   <v>       0.73491090       0.49159279       0.51387317 </v>
   <v>       0.45519879       0.92217195       0.43480806 </v>
   <v>       0.51059183       0.57056421       0.44222858 </v>
   <v>       0.94844529       0.49313956       0.42386333 </v>
   <v>       0.64543015       0.18790315       0.52462275 </v>
   <v>       0.58423919       0.37645300       0.52699100 </v>
   <v>       0.61562600       0.96641830       0.39970160 </v>
   <v>       0.39862180       0.41132751       0.39506911 </v>
   <v>       0.99052952       0.37704689       0.37704086 </v>
   <v>       0.43283040       0.03290710       0.39525765 </v>
   <v>       0.64537458       0.59101624       0.41726164 </v>
   <v>       0.10448523       0.66292676       0.50330741 </v>
   <v>       0.17022487       0.70165083       0.53349646 </v>
   <v>       0.14507005       0.63490632       0.50723572 </v>
   <v>       0.31590513       0.44278816       0.53540264 </v>
   <v>       0.31976402       0.84781060       0.52957092 </v>
   <v>       0.10504897       0.41835650       0.49220450 </v>
   <v>       0.16922707       0.44304847       0.52954870 </v>
   <v>       0.14672108       0.48671860       0.50447924 </v>
   <v>       0.24262937       0.81072217       0.52669093 </v>
   <v>       0.23977045       0.47047388       0.57551094 </v>
   <v>       0.14949671       0.59811062       0.50090316 </v>
   <v>       0.17960681       0.59411805       0.53567633 </v>
   <v>       0.15087550       0.52794229       0.50108813 </v>
   <v>       0.04059403       0.35028292       0.51524405 </v>
   <v>       0.20721726       0.74198354       0.54548230 </v>
   <v>       0.24268028       0.74440496       0.57287856 </v>
   <v>       0.27910849       0.81175135       0.54429530 </v>
   <v>       0.27543464       0.43847692       0.54963203 </v>
   <v>       0.23882850       0.40325727       0.53093686 </v>
   <v>       0.20468978       0.43808154       0.54553296 </v>
   <v>       0.12320967       0.53328994       0.46107388 </v>
   <v>       0.06201659       0.65384985       0.49130540 </v>
   <v>       0.04114042       0.62952361       0.43524727 </v>
   <v>       0.06312211       0.38520899       0.47549008 </v>
   <v>       0.60549054       0.91690359       0.50721157 </v>
   <v>       0.57765110       0.85179799       0.54155295 </v>
   <v>       0.53672294       0.87653767       0.50970378 </v>
   <v>       0.35416450       0.41621726       0.49971035 </v>
   <v>       0.38238209       0.48477201       0.50973557 </v>
   <v>       0.93916918       0.33387767       0.48063318 </v>
   <v>       0.87378231       0.29615304       0.51322281 </v>
   <v>       0.89930581       0.36265734       0.48490945 </v>
   <v>       0.43880895       0.08042399       0.50292727 </v>
   <v>       0.46556249       0.14726559       0.52531955 </v>
   <v>       0.50727999       0.12061573       0.51753872 </v>
   <v>       0.68484949       0.58323855       0.52538463 </v>
   <v>       0.72428224       0.55509236       0.54013259 </v>
   <v>       0.65544233       0.51444858       0.53718540 </v>
   <v>       0.43859453       0.33535846       0.50337463 </v>
   <v>       0.46707776       0.29694756       0.52813311 </v>
   <v>       0.50617315       0.36581075       0.52474769 </v>
   <v>       0.68639488       0.08245298       0.51123698 </v>
   <v>       0.72441755       0.14963032       0.53514014 </v>
   <v>       0.65593414       0.12019158       0.52522985 </v>
   <v>       0.93792422       0.57937365       0.49340540 </v>
   <v>       0.87068311       0.55059362       0.51587822 </v>
   <v>       0.89762092       0.51048095       0.49409318 </v>
   <v>       0.59782735       0.66239325       0.52107322 </v>
   <v>       0.57077809       0.70141560       0.55030149 </v>
   <v>       0.52915297       0.63529230       0.52292477 </v>
   <v>       0.35864348       0.91376970       0.49831446 </v>
   <v>       0.38635919       0.87292911       0.50555622 </v>
   <v>       0.61246280       0.77822043       0.54508631 </v>
   <v>       0.80076119       0.18716114       0.52004731 </v>
   <v>       0.42909750       0.21992483       0.51549403 </v>
   <v>       0.83369412       0.58990548       0.54149898 </v>
   <v>       0.49562384       0.87203486       0.50178760 </v>
   <v>       0.46073714       0.84005921       0.53245905 </v>
   <v>       0.42378613       0.86969292       0.50109778 </v>
   <v>       0.41896890       0.52631660       0.50618883 </v>
   <v>       0.42123708       0.55942957       0.54197873 </v>
   <v>       0.48841439       0.59819281       0.51412372 </v>
   <v>       0.89567458       0.39989020       0.48062825 </v>
   <v>       0.86384108       0.40226566       0.51254399 </v>
   <v>       0.89466150       0.46998780       0.48741507 </v>
   <v>       0.54740764       0.12281597       0.52379976 </v>
   <v>       0.54811499       0.08619656       0.53220465 </v>
   <v>       0.61753591       0.12177846       0.52883143 </v>
   <v>       0.61727246       0.47419573       0.54021111 </v>
   <v>       0.57974904       0.47295190       0.54895887 </v>
   <v>       0.54594901       0.40400946       0.53456147 </v>
   <v>       0.00167222       0.64499300       0.53186905 </v>
   <v>       0.69075119       0.01890284       0.53965536 </v>
   <v>       0.36927455       0.32945425       0.52562039 </v>
   <v>       0.35417148       0.97688633       0.52892422 </v>
   <v>       0.66496734       0.66681609       0.55445152 </v>
   <v>       0.58028923       0.81499944       0.55800365 </v>
   <v>       0.54663267       0.78057899       0.58699513 </v>
   <v>       0.57623053       0.74247523       0.56334919 </v>
   <v>       0.83687228       0.25650555       0.52937069 </v>
   <v>       0.80249880       0.25570640       0.55818315 </v>
   <v>       0.76518363       0.18703223       0.54088812 </v>
   <v>       0.46266471       0.18482875       0.53251281 </v>
   <v>       0.49653274       0.22073202       0.55742505 </v>
   <v>       0.46420299       0.25642574       0.53486587 </v>
   <v>       0.76416717       0.55634177       0.53785865 </v>
   <v>       0.76375068       0.51982379       0.52195044 </v>
   <v>       0.83320943       0.55348734       0.52523846 </v>
   <v>       0.45762539       0.89934571       0.46462432 </v>
   <v>       0.48484488       0.56643179       0.47253544 </v>
   <v>       0.92470374       0.46677727       0.45065185 </v>
   <v>       0.61696445       0.15862537       0.52550647 </v>
   <v>       0.58345731       0.40478044       0.53175418 </v>
   <v>       0.98068235       0.61357544       0.48509507 </v>
   <v>       0.63903295       0.95944270       0.49623183 </v>
   <v>       0.63513408       0.98167874       0.44268832 </v>
   <v>       0.67922721       0.04076096       0.49679683 </v>
   <v>       0.36360949       0.38322427       0.48649579 </v>
   <v>       0.39227958       0.38971713       0.43572302 </v>
   <v>       0.40463738       0.34299324       0.48672223 </v>
   <v>       0.98188491       0.34338488       0.47066688 </v>
   <v>       0.00504714       0.37153859       0.41973414 </v>
   <v>       0.40596899       0.03762738       0.48961400 </v>
   <v>       0.41212040       0.01660458       0.43654668 </v>
   <v>       0.36715172       0.95615567       0.48627660 </v>
   <v>       0.67527217       0.61639317       0.51341634 </v>
   <v>       0.64887626       0.61086373       0.45940677 </v>
   <v>       0.63190614       0.65418978       0.51042835 </v>
  </varray>
 </structure>
</modeling>
